   2   2   1   0
  0.2355101E+02  0.4053699E-09  0.4053699E-09  0.4053699E-09  0.5000000E-15
  1.000000000000000E-004
  CAR 
 AlAs                                    
     14.27687640     -9.14958468   11      3.73496892      1.00000000
     -9.150  0.0000E+00  0.0000E+00
     -6.807  0.4160E-03  0.7916E-02
     -4.464  0.0000E+00  0.2000E-01
     -2.122  0.0000E+00  0.2000E-01
      0.221  0.1444E-03  0.3790E-01
      2.564  0.1405E-02  0.7224E-01
      4.906  0.0000E+00  0.8000E-01
      7.249  0.5500E-07  0.1007E+00
      9.592  0.5621E-03  0.1345E+00
     11.934  0.2811E-03  0.1584E+00
     14.277  0.0000E+00  0.1600E+00
     14.27687640     -9.14958468   11      3.73496892      1.00000000
     -9.150  0.0000E+00  0.0000E+00  0.0000E+00
     -6.807  0.1420E-02  0.5245E-03  0.0000E+00
     -4.464  0.0000E+00  0.0000E+00  0.0000E+00
     -2.122  0.0000E+00  0.0000E+00  0.0000E+00
      0.221  0.1061E-03  0.1007E-02  0.0000E+00
      2.564  0.9015E-03  0.1028E-01  0.0000E+00
      4.906  0.0000E+00  0.0000E+00  0.0000E+00
      7.249  0.6056E-06  0.7614E-07  0.0000E+00
      9.592  0.7855E-03  0.6152E-02  0.0000E+00
     11.934  0.3720E-17  0.3808E-02  0.0000E+00
     14.277  0.0000E+00  0.0000E+00  0.0000E+00
     14.27687640     -9.14958468   11      3.73496892      1.00000000
     -9.150  0.0000E+00  0.0000E+00  0.0000E+00
     -6.807  0.2240E-01  0.9059E-04  0.1069E-04
     -4.464  0.0000E+00  0.0000E+00  0.0000E+00
     -2.122  0.0000E+00  0.0000E+00  0.0000E+00
      0.221  0.6599E-04  0.3557E-02  0.2048E-04
      2.564  0.5431E-03  0.4973E-01  0.6315E-03
      4.906  0.0000E+00  0.0000E+00  0.0000E+00
      7.249  0.1269E-06  0.6207E-06  0.2507E-06
      9.592  0.6475E-03  0.6433E-02  0.3230E-02
     11.934  0.5038E-17  0.4172E-02  0.1689E-02
     14.277  0.0000E+00  0.0000E+00  0.0000E+00
