    2    2  100    1
  0.2355101E+02  0.4053699E-09  0.4053699E-09  0.4053699E-09  0.5000000E-15
  1.000000000000000E-004
  CAR 
 AlAs                                    
      8     35      8
 
  0.0000000E+00  0.0000000E+00  0.0000000E+00  0.1371742E-02
    1       -8.084746   1.000000
    2        3.572200   1.000000
    3        3.572200   1.000000
    4        3.572201   1.000000
    5        5.335080   0.000000
    6        7.795304   0.000000
    7        7.795304   0.000000
    8        7.795305   0.000000
 
  0.1111111E+00  0.2372966E-17 -0.1980245E-17  0.1097394E-01
    1       -7.969364   1.000000
    2        2.362896   1.000000
    3        3.446663   1.000000
    4        3.446663   1.000000
    5        6.077116   0.000000
    6        8.018063   0.000000
    7        8.018064   0.000000
    8        8.041444   0.000000
 
  0.2222222E+00  0.4240473E-17 -0.3455031E-17  0.1097394E-01
    1       -7.643876   1.000000
    2        0.652817   1.000000
    3        3.178314   1.000000
    4        3.178314   1.000000
    5        6.106250   0.000000
    6        8.373447   0.000000
    7        8.373448   0.000000
    8        9.386577   0.000000
 
  0.3333333E+00  0.1447938E-16  0.1445436E-16  0.1097394E-01
    1       -7.189387   1.000000
    2       -0.808823   1.000000
    3        2.930644   1.000000
    4        2.930644   1.000000
    5        5.795296   0.000000
    6        8.384132   0.000000
    7        8.384133   0.000000
    8       10.887899   0.000000
 
  0.4444444E+00  0.8480946E-17 -0.6910062E-17  0.1097394E-01
    1       -6.810275   1.000000
    2       -1.708832   1.000000
    3        2.791472   1.000000
    4        2.791472   1.000000
    5        5.600751   0.000000
    6        8.247138   0.000000
    7        8.247138   0.000000
    8       11.251148   0.000000
 
  0.1111111E+00  0.1111111E+00  0.3617000E-17  0.8230453E-02
    1       -7.930685   1.000000
    2        2.375554   1.000000
    3        3.181300   1.000000
    4        3.181300   1.000000
    5        6.577228   0.000000
    6        7.281388   0.000000
    7        8.423982   0.000000
    8        8.423982   0.000000
 
  0.2222222E+00  0.1111111E+00  0.2316579E-17  0.3292181E-01
    1       -7.673976   1.000000
    2        1.072261   1.000000
    3        2.848701   1.000000
    4        2.915332   1.000000
    5        6.835884   0.000000
    6        7.454350   0.000000
    7        8.971012   0.000000
    8        9.083906   0.000000
 
  0.3333333E+00  0.1111111E+00 -0.2669588E-17  0.3292181E-01
    1       -7.256033   1.000000
    2       -0.366722   1.000000
    3        2.536849   1.000000
    4        2.610453   1.000000
    5        6.541429   0.000000
    6        7.989455   0.000000
    7        9.093586   0.000000
    8        9.547339   0.000000
 
  0.4444444E+00  0.1111111E+00  0.9733414E-17  0.3292181E-01
    1       -6.830749   1.000000
    2       -1.427819   1.000000
    3        2.185110   1.000000
    4        2.535858   1.000000
    5        6.328058   0.000000
    6        7.993338   0.000000
    7        8.845883   0.000000
    8       10.786455   0.000000
 
 -0.4444444E+00  0.1111111E+00  0.1152985E-16  0.3292181E-01
    1       -6.685539   1.000000
    2       -1.734314   1.000000
    3        1.979436   1.000000
    4        2.636136   1.000000
    5        6.288523   0.000000
    6        8.033266   0.000000
    7        8.623916   0.000000
    8       11.616800   0.000000
 
 -0.3333333E+00  0.1111111E+00  0.2189119E-17  0.3292181E-01
    1       -6.960136   1.000000
    2       -1.131839   1.000000
    3        1.975220   1.000000
    4        2.882847   1.000000
    5        6.430795   0.000000
    6        8.268007   0.000000
    7        8.544482   0.000000
    8       10.893995   0.000000
 
 -0.2222222E+00  0.1111111E+00  0.6220718E-17  0.3292181E-01
    1       -7.409174   1.000000
    2        0.082989   1.000000
    3        2.209356   1.000000
    4        3.202178   1.000000
    5        6.695460   0.000000
    6        8.388268   0.000000
    7        8.430384   0.000000
    8        9.642194   0.000000
 
 -0.1111111E+00  0.1111111E+00  0.4745933E-17  0.1646091E-01
    1       -7.783219   1.000000
    2        1.449300   1.000000
    3        2.748879   1.000000
    4        3.450676   1.000000
    5        6.680890   0.000000
    6        7.878283   0.000000
    7        8.099673   0.000000
    8        9.007787   0.000000
 
  0.2222222E+00  0.2222222E+00  0.7234000E-17  0.8230453E-02
    1       -7.492903   1.000000
    2        0.764410   1.000000
    3        2.456172   1.000000
    4        2.456172   1.000000
    5        6.362118   0.000000
    6        7.411042   0.000000
    7        9.839845   0.000000
    8        9.839846   0.000000
 
  0.3333333E+00  0.2222222E+00  0.1669512E-17  0.3292181E-01
    1       -7.140076   1.000000
    2       -0.190890   1.000000
    3        1.978280   1.000000
    4        2.179567   1.000000
    5        6.270338   0.000000
    6        7.401454   0.000000
    7        9.698678   0.000000
    8       10.333113   0.000000
 
  0.4444444E+00  0.2222222E+00 -0.3738245E-17  0.3292181E-01
    1       -6.730820   1.000000
    2       -1.104454   1.000000
    3        1.356292   1.000000
    4        2.093992   1.000000
    5        6.257466   0.000000
    6        8.357874   0.000000
    7        9.437710   0.000000
    8       10.169468   0.000000
 
 -0.4444444E+00  0.2222222E+00  0.5924133E-17  0.3292181E-01
    1       -6.497374   1.000000
    2       -1.540927   1.000000
    3        0.898682   1.000000
    4        2.214919   1.000000
    5        6.350778   0.000000
    6        8.907998   0.000000
    7        9.820576   0.000000
    8       10.409360   0.000000
 
 -0.3333333E+00  0.2222222E+00 -0.3416596E-17  0.3292181E-01
    1       -6.638967   1.000000
    2       -1.266789   1.000000
    3        0.772716   1.000000
    4        2.514197   1.000000
    5        6.671287   0.000000
    6        8.937204   0.000000
    7        9.507511   0.000000
    8       10.767975   0.000000
 
 -0.2222222E+00  0.2222222E+00  0.8480946E-17  0.1646091E-01
    1       -7.026377   1.000000
    2       -0.565008   1.000000
    3        1.169071   1.000000
    4        2.904746   1.000000
    5        7.059976   0.000000
    6        8.837640   0.000000
    7        9.028961   0.000000
    8        9.480635   0.000000
 
  0.3333333E+00  0.3333333E+00  0.1085100E-16  0.8230453E-02
    1       -6.868639   1.000000
    2       -0.650438   1.000000
    3        1.850703   1.000000
    4        1.850703   1.000000
    5        5.587390   0.000000
    6        6.552645   0.000000
    7       11.541572   0.000000
    8       11.541572   0.000000
 
  0.4444444E+00  0.3333333E+00  0.1984412E-16  0.3292181E-01
    1       -6.534197   1.000000
    2       -1.224659   1.000000
    3        1.297467   1.000000
    4        1.716864   1.000000
    5        5.616418   0.000000
    6        6.681406   0.000000
    7       11.453476   0.000000
    8       11.854829   0.000000
 
 -0.4444444E+00  0.3333333E+00  0.6835721E-17  0.3292181E-01
    1       -6.312652   1.000000
    2       -1.483322   1.000000
    3        0.533772   1.000000
    4        1.804209   1.000000
    5        5.792366   0.000000
    6        8.039220   0.000000
    7       11.159477   0.000000
    8       11.479528   0.000000
 
 -0.3333333E+00  0.3333333E+00 -0.2655239E-16  0.1646091E-01
    1       -6.363804   1.000000
    2       -1.376152   1.000000
    3        0.203163   1.000000
    4        2.094891   1.000000
    5        6.164503   0.000000
    6        9.768948   0.000000
    7       10.736206   0.000000
    8       10.967137   0.000000
 
  0.4444444E+00  0.4444444E+00  0.1446800E-16  0.8230453E-02
    1       -6.324787   1.000000
    2       -1.590977   1.000000
    3        1.523853   1.000000
    4        1.523853   1.000000
    5        5.133051   0.000000
    6        5.938257   0.000000
    7       13.212037   0.000000
    8       13.212037   0.000000
 
 -0.4444444E+00  0.4444444E+00  0.1696189E-16  0.1646091E-01
    1       -6.231115   1.000000
    2       -1.672219   1.000000
    3        1.057480   1.000000
    4        1.554965   1.000000
    5        5.363676   0.000000
    6        6.415214   0.000000
    7       12.998420   0.000000
    8       13.007802   0.000000
 
  0.3333333E+00  0.2222222E+00  0.1111111E+00  0.3292181E-01
    1       -7.367759   1.000000
    2        0.236060   1.000000
    3        1.976992   1.000000
    4        2.814903   1.000000
    5        7.141365   0.000000
    6        7.524230   0.000000
    7        8.982181   0.000000
    8        9.564078   0.000000
 
  0.4444444E+00  0.2222222E+00  0.1111111E+00  0.6584362E-01
    1       -6.946512   1.000000
    2       -0.776709   1.000000
    3        1.427153   1.000000
    4        2.506506   1.000000
    5        7.105817   0.000000
    6        7.948621   0.000000
    7        9.074089   0.000000
    8        9.925539   0.000000
 
 -0.4444444E+00  0.2222222E+00  0.1111111E+00  0.6584362E-01
    1       -6.603220   1.000000
    2       -1.496622   1.000000
    3        1.211323   1.000000
    4        2.264800   1.000000
    5        7.008222   0.000000
    6        7.798877   0.000000
    7        9.727167   0.000000
    8       10.681415   0.000000
 
  0.4444444E+00  0.3333333E+00  0.1111111E+00  0.3292181E-01
    1       -6.787772   1.000000
    2       -0.815853   1.000000
    3        1.365015   1.000000
    4        1.904597   1.000000
    5        6.404948   0.000000
    6        7.274016   0.000000
    7        9.648468   0.000000
    8       11.439790   0.000000
 
 -0.4444444E+00  0.3333333E+00  0.1111111E+00  0.6584362E-01
    1       -6.456648   1.000000
    2       -1.315411   1.000000
    3        0.780672   1.000000
    4        1.671056   1.000000
    5        6.660985   0.000000
    6        8.259489   0.000000
    7        9.276189   0.000000
    8       11.679520   0.000000
 
 -0.3333333E+00  0.3333333E+00  0.1111111E+00  0.6584362E-01
    1       -6.363551   1.000000
    2       -1.421242   1.000000
    3        0.430723   1.000000
    4        1.760497   1.000000
    5        6.918050   0.000000
    6        8.733487   0.000000
    7       10.111861   0.000000
    8       10.927541   0.000000
 
 -0.2222222E+00  0.3333333E+00  0.1111111E+00  0.3292181E-01
    1       -6.584743   1.000000
    2       -1.141041   1.000000
    3        0.596772   1.000000
    4        2.105477   1.000000
    5        7.331908   0.000000
    6        8.373428   0.000000
    7        9.126298   0.000000
    8       11.132931   0.000000
 
 -0.4444444E+00  0.4444444E+00  0.1111111E+00  0.3292181E-01
    1       -6.301337   1.000000
    2       -1.515290   1.000000
    3        1.086376   1.000000
    4        1.294099   1.000000
    5        5.958005   0.000000
    6        6.784565   0.000000
    7       11.227411   0.000000
    8       12.946852   0.000000
 
 -0.3333333E+00  0.4444444E+00  0.1111111E+00  0.3292181E-01
    1       -6.231384   1.000000
    2       -1.494615   1.000000
    3        0.482500   1.000000
    4        1.362502   1.000000
    5        6.434716   0.000000
    6        8.097382   0.000000
    7       10.574724   0.000000
    8       11.252355   0.000000
 
 -0.3333333E+00  0.4444444E+00  0.2222222E+00  0.3292181E-01
    1       -6.256111   1.000000
    2       -1.400897   1.000000
    3        0.487432   1.000000
    4        1.122269   1.000000
    5        7.670175   0.000000
    6        8.636151   0.000000
    7        8.950534   0.000000
    8       10.618114   0.000000
