       N       E                     dE             d eps       ncg     rms          rms(c)
DAV:   1     0.135828380163E+02    0.13583E+02   -0.29247E+03   560   0.679E+02
DAV:   2    -0.906402696196E+01   -0.22647E+02   -0.21658E+02   792   0.836E+01
DAV:   3    -0.960011384472E+01   -0.53609E+00   -0.53609E+00   640   0.181E+01
DAV:   4    -0.960291987913E+01   -0.28060E-02   -0.28060E-02   896   0.147E+00
DAV:   5    -0.960292764232E+01   -0.77632E-05   -0.77632E-05   696   0.617E-02
DAV:   6    -0.960292771739E+01   -0.75072E-07   -0.75072E-07   880   0.531E-03
DAV:   7    -0.960292771771E+01   -0.32122E-09   -0.32126E-09   752   0.258E-04
DAV:   8    -0.960292771772E+01   -0.55138E-11   -0.55558E-11   768   0.212E-05    0.312E+00
DAV:   9    -0.946906618713E+01    0.13386E+00   -0.16166E-01   608   0.180E+00    0.237E+00
DAV:  10    -0.939206936372E+01    0.76997E-01   -0.47594E-01   664   0.316E+00    0.108E+00
DAV:  11    -0.938892806304E+01    0.31413E-02   -0.26840E-02   568   0.984E-01    0.140E-01
DAV:  12    -0.938897637256E+01   -0.48310E-04   -0.78420E-04   752   0.208E-01    0.968E-02
DAV:  13    -0.938896762079E+01    0.87518E-05   -0.28340E-04   632   0.852E-02    0.325E-02
DAV:  14    -0.938896819142E+01   -0.57064E-06   -0.16917E-04   608   0.604E-02    0.255E-02
DAV:  15    -0.938896729230E+01    0.89913E-06   -0.51037E-06   696   0.186E-02    0.109E-02
DAV:  16    -0.938896540052E+01    0.18918E-05   -0.68104E-06   576   0.119E-02    0.155E-03
DAV:  17    -0.938896539507E+01    0.54465E-08   -0.12244E-07   536   0.293E-03
   1 F= -.93889654E+01 E0= -.93889654E+01  d E =-.938897E+01
