PROCAR new format
# of k-points:   35         # of bands:    8         # of ions:    2

 k-point     1 :    0.00000000 0.00000000 0.00000000     weight = 0.00137174

band     1 # energy   -8.08474554 # occ.  2.00000000
 
ion      s      p      d    tot
    1  0.073  0.000  0.000  0.073
    2  0.448  0.000  0.000  0.448
tot    0.521  0.000  0.000  0.521
 
band     2 # energy    3.57220044 # occ.  2.00000000
 
ion      s      p      d    tot
    1  0.000  0.036  0.000  0.036
    2  0.000  0.443  0.004  0.447
tot    0.000  0.479  0.004  0.483
 
band     3 # energy    3.57220044 # occ.  2.00000000
 
ion      s      p      d    tot
    1  0.000  0.036  0.000  0.036
    2  0.000  0.443  0.004  0.447
tot    0.000  0.479  0.004  0.483
 
band     4 # energy    3.57220087 # occ.  2.00000000
 
ion      s      p      d    tot
    1  0.000  0.036  0.000  0.036
    2  0.000  0.443  0.004  0.447
tot    0.000  0.479  0.004  0.483
 
band     5 # energy    5.33507994 # occ.  0.00000000
 
ion      s      p      d    tot
    1  0.213  0.000  0.000  0.213
    2  0.342  0.000  0.000  0.342
tot    0.556  0.000  0.000  0.556
 
band     6 # energy    7.79530409 # occ.  0.00000000
 
ion      s      p      d    tot
    1  0.000  0.220  0.000  0.220
    2  0.000  0.021  0.064  0.085
tot    0.000  0.241  0.064  0.305
 
band     7 # energy    7.79530409 # occ.  0.00000000
 
ion      s      p      d    tot
    1  0.000  0.220  0.000  0.220
    2  0.000  0.021  0.064  0.085
tot    0.000  0.241  0.064  0.305
 
band     8 # energy    7.79530467 # occ.  0.00000000
 
ion      s      p      d    tot
    1  0.000  0.220  0.000  0.220
    2  0.000  0.021  0.064  0.085
tot    0.000  0.241  0.064  0.305
 

 k-point     2 :    0.11111111 0.00000000-0.00000000     weight = 0.01097394

band     1 # energy   -7.96936417 # occ.  2.00000000
 
ion      s      p      d    tot
    1  0.070  0.001  0.000  0.071
    2  0.453  0.001  0.000  0.454
tot    0.524  0.002  0.000  0.525
 
band     2 # energy    2.36289619 # occ.  2.00000000
 
ion      s      p      d    tot
    1  0.057  0.034  0.000  0.090
    2  0.079  0.295  0.004  0.378
tot    0.135  0.328  0.004  0.468
 
band     3 # energy    3.44666282 # occ.  2.00000000
 
ion      s      p      d    tot
    1  0.000  0.044  0.000  0.044
    2  0.000  0.429  0.005  0.434
tot    0.000  0.473  0.005  0.478
 
band     4 # energy    3.44666320 # occ.  2.00000000
 
ion      s      p      d    tot
    1  0.000  0.044  0.000  0.044
    2  0.000  0.429  0.005  0.434
tot    0.000  0.473  0.005  0.478
 
band     5 # energy    6.07711569 # occ.  0.00000000
 
ion      s      p      d    tot
    1  0.161  0.033  0.000  0.194
    2  0.234  0.083  0.007  0.323
tot    0.395  0.115  0.007  0.517
 
band     6 # energy    8.01806306 # occ.  0.00000000
 
ion      s      p      d    tot
    1  0.000  0.213  0.000  0.213
    2  0.000  0.036  0.063  0.099
tot    0.000  0.249  0.063  0.312
 
band     7 # energy    8.01806357 # occ.  0.00000000
 
ion      s      p      d    tot
    1  0.000  0.213  0.000  0.213
    2  0.000  0.036  0.063  0.099
tot    0.000  0.249  0.063  0.312
 
band     8 # energy    8.04144401 # occ.  0.00000000
 
ion      s      p      d    tot
    1  0.032  0.151  0.000  0.183
    2  0.021  0.089  0.052  0.163
tot    0.054  0.240  0.052  0.346
 

 k-point     3 :    0.22222222 0.00000000-0.00000000     weight = 0.01097394

band     1 # energy   -7.64387639 # occ.  2.00000000
 
ion      s      p      d    tot
    1  0.062  0.004  0.000  0.066
    2  0.471  0.002  0.000  0.473
tot    0.533  0.006  0.000  0.539
 
band     2 # energy    0.65281748 # occ.  2.00000000
 
ion      s      p      d    tot
    1  0.084  0.034  0.000  0.118
    2  0.085  0.225  0.003  0.314
tot    0.169  0.260  0.003  0.432
 
band     3 # energy    3.17831375 # occ.  2.00000000
 
ion      s      p      d    tot
    1  0.000  0.058  0.000  0.058
    2  0.000  0.406  0.005  0.411
tot    0.000  0.464  0.005  0.469
 
band     4 # energy    3.17831414 # occ.  2.00000000
 
ion      s      p      d    tot
    1  0.000  0.058  0.000  0.058
    2  0.000  0.406  0.005  0.411
tot    0.000  0.464  0.005  0.469
 
band     5 # energy    6.10624995 # occ.  0.00000000
 
ion      s      p      d    tot
    1  0.156  0.059  0.000  0.215
    2  0.152  0.035  0.024  0.212
tot    0.308  0.095  0.024  0.427
 
band     6 # energy    8.37344734 # occ.  0.00000000
 
ion      s      p      d    tot
    1  0.000  0.188  0.000  0.188
    2  0.000  0.053  0.062  0.115
tot    0.000  0.241  0.062  0.303
 
band     7 # energy    8.37344778 # occ.  0.00000000
 
ion      s      p      d    tot
    1  0.000  0.188  0.000  0.188
    2  0.000  0.053  0.062  0.115
tot    0.000  0.241  0.062  0.303
 
band     8 # energy    9.38657747 # occ.  0.00000000
 
ion      s      p      d    tot
    1  0.062  0.069  0.000  0.131
    2  0.065  0.215  0.027  0.306
tot    0.127  0.284  0.027  0.437
 

 k-point     4 :    0.33333333 0.00000000 0.00000000     weight = 0.01097394

band     1 # energy   -7.18938733 # occ.  2.00000000
 
ion      s      p      d    tot
    1  0.048  0.009  0.000  0.057
    2  0.505  0.003  0.000  0.508
tot    0.553  0.011  0.000  0.564
 
band     2 # energy   -0.80882296 # occ.  2.00000000
 
ion      s      p      d    tot
    1  0.106  0.032  0.000  0.138
    2  0.058  0.193  0.002  0.254
tot    0.164  0.226  0.002  0.392
 
band     3 # energy    2.93064408 # occ.  2.00000000
 
ion      s      p      d    tot
    1  0.000  0.068  0.000  0.068
    2  0.000  0.392  0.004  0.396
tot    0.000  0.460  0.004  0.464
 
band     4 # energy    2.93064448 # occ.  2.00000000
 
ion      s      p      d    tot
    1  0.000  0.068  0.000  0.068
    2  0.000  0.392  0.004  0.396
tot    0.000  0.460  0.004  0.464
 
band     5 # energy    5.79529609 # occ.  0.00000000
 
ion      s      p      d    tot
    1  0.175  0.041  0.000  0.216
    2  0.136  0.022  0.029  0.187
tot    0.311  0.063  0.029  0.403
 
band     6 # energy    8.38413223 # occ.  0.00000000
 
ion      s      p      d    tot
    1  0.000  0.148  0.000  0.148
    2  0.000  0.046  0.064  0.110
tot    0.000  0.194  0.064  0.258
 
band     7 # energy    8.38413255 # occ.  0.00000000
 
ion      s      p      d    tot
    1  0.000  0.148  0.000  0.148
    2  0.000  0.046  0.064  0.110
tot    0.000  0.194  0.064  0.258
 
band     8 # energy   10.88789892 # occ.  0.00000000
 
ion      s      p      d    tot
    1  0.025  0.046  0.000  0.071
    2  0.034  0.249  0.009  0.292
tot    0.059  0.295  0.009  0.363
 

 k-point     5 :    0.44444444 0.00000000-0.00000000     weight = 0.01097394

band     1 # energy   -6.81027521 # occ.  2.00000000
 
ion      s      p      d    tot
    1  0.033  0.012  0.000  0.046
    2  0.545  0.001  0.000  0.547
tot    0.578  0.013  0.000  0.592
 
band     2 # energy   -1.70883235 # occ.  2.00000000
 
ion      s      p      d    tot
    1  0.125  0.029  0.000  0.154
    2  0.019  0.182  0.002  0.203
tot    0.144  0.211  0.002  0.356
 
band     3 # energy    2.79147179 # occ.  2.00000000
 
ion      s      p      d    tot
    1  0.000  0.073  0.000  0.073
    2  0.000  0.385  0.003  0.389
tot    0.000  0.458  0.003  0.462
 
band     4 # energy    2.79147219 # occ.  2.00000000
 
ion      s      p      d    tot
    1  0.000  0.073  0.000  0.073
    2  0.000  0.385  0.003  0.389
tot    0.000  0.458  0.003  0.462
 
band     5 # energy    5.60075143 # occ.  0.00000000
 
ion      s      p      d    tot
    1  0.187  0.029  0.000  0.215
    2  0.135  0.019  0.030  0.183
tot    0.322  0.047  0.030  0.399
 
band     6 # energy    8.24713803 # occ.  0.00000000
 
ion      s      p      d    tot
    1  0.000  0.127  0.000  0.127
    2  0.000  0.038  0.066  0.103
tot    0.000  0.165  0.066  0.231
 
band     7 # energy    8.24713829 # occ.  0.00000000
 
ion      s      p      d    tot
    1  0.000  0.127  0.000  0.127
    2  0.000  0.038  0.066  0.103
tot    0.000  0.165  0.066  0.231
 
band     8 # energy   11.25114819 # occ.  0.00000000
 
ion      s      p      d    tot
    1  0.001  0.020  0.000  0.021
    2  0.006  0.146  0.002  0.154
tot    0.007  0.165  0.002  0.174
 

 k-point     6 :    0.11111111 0.11111111 0.00000000     weight = 0.00823045

band     1 # energy   -7.93068453 # occ.  2.00000000
 
ion      s      p      d    tot
    1  0.069  0.001  0.000  0.071
    2  0.455  0.001  0.000  0.456
tot    0.524  0.002  0.000  0.527
 
band     2 # energy    2.37555385 # occ.  2.00000000
 
ion      s      p      d    tot
    1  0.075  0.022  0.000  0.097
    2  0.102  0.285  0.004  0.391
tot    0.177  0.307  0.004  0.488
 
band     3 # energy    3.18130016 # occ.  2.00000000
 
ion      s      p      d    tot
    1  0.000  0.054  0.000  0.054
    2  0.000  0.401  0.005  0.406
tot    0.000  0.454  0.005  0.460
 
band     4 # energy    3.18130045 # occ.  2.00000000
 
ion      s      p      d    tot
    1  0.000  0.054  0.000  0.054
    2  0.000  0.401  0.005  0.406
tot    0.000  0.454  0.005  0.460
 
band     5 # energy    6.57722790 # occ.  0.00000000
 
ion      s      p      d    tot
    1  0.156  0.012  0.000  0.168
    2  0.217  0.169  0.001  0.387
tot    0.373  0.182  0.001  0.555
 
band     6 # energy    7.28138770 # occ.  0.00000000
 
ion      s      p      d    tot
    1  0.027  0.180  0.000  0.207
    2  0.008  0.012  0.057  0.077
tot    0.035  0.192  0.057  0.284
 
band     7 # energy    8.42398165 # occ.  0.00000000
 
ion      s      p      d    tot
    1  0.000  0.202  0.000  0.202
    2  0.000  0.066  0.063  0.129
tot    0.000  0.268  0.063  0.331
 
band     8 # energy    8.42398204 # occ.  0.00000000
 
ion      s      p      d    tot
    1  0.000  0.202  0.000  0.202
    2  0.000  0.066  0.063  0.129
tot    0.000  0.268  0.063  0.331
 

 k-point     7 :    0.22222222 0.11111111 0.00000000     weight = 0.03292181

band     1 # energy   -7.67397604 # occ.  2.00000000
 
ion      s      p      d    tot
    1  0.063  0.004  0.000  0.067
    2  0.469  0.002  0.000  0.471
tot    0.531  0.006  0.000  0.538
 
band     2 # energy    1.07226142 # occ.  2.00000000
 
ion      s      p      d    tot
    1  0.090  0.028  0.000  0.118
    2  0.100  0.234  0.004  0.338
tot    0.191  0.262  0.004  0.457
 
band     3 # energy    2.84870123 # occ.  2.00000000
 
ion      s      p      d    tot
    1  0.000  0.065  0.000  0.065
    2  0.000  0.376  0.005  0.381
tot    0.000  0.442  0.005  0.447
 
band     4 # energy    2.91533163 # occ.  2.00000000
 
ion      s      p      d    tot
    1  0.012  0.058  0.000  0.070
    2  0.009  0.369  0.006  0.384
tot    0.021  0.427  0.006  0.454
 
band     5 # energy    6.83588364 # occ.  0.00000000
 
ion      s      p      d    tot
    1  0.118  0.067  0.000  0.185
    2  0.095  0.107  0.028  0.230
tot    0.213  0.174  0.028  0.415
 
band     6 # energy    7.45434950 # occ.  0.00000000
 
ion      s      p      d    tot
    1  0.057  0.131  0.000  0.188
    2  0.070  0.074  0.036  0.181
tot    0.127  0.206  0.036  0.369
 
band     7 # energy    8.97101162 # occ.  0.00000000
 
ion      s      p      d    tot
    1  0.000  0.184  0.000  0.184
    2  0.000  0.089  0.063  0.152
tot    0.000  0.273  0.063  0.337
 
band     8 # energy    9.08390568 # occ.  0.00000000
 
ion      s      p      d    tot
    1  0.014  0.123  0.000  0.137
    2  0.011  0.115  0.057  0.183
tot    0.025  0.238  0.057  0.320
 

 k-point     8 :    0.33333333 0.11111111-0.00000000     weight = 0.03292181

band     1 # energy   -7.25603344 # occ.  2.00000000
 
ion      s      p      d    tot
    1  0.050  0.008  0.000  0.058
    2  0.497  0.003  0.000  0.501
tot    0.548  0.011  0.000  0.559
 
band     2 # energy   -0.36672248 # occ.  2.00000000
 
ion      s      p      d    tot
    1  0.108  0.030  0.000  0.137
    2  0.074  0.200  0.003  0.276
tot    0.181  0.230  0.003  0.414
 
band     3 # energy    2.53684913 # occ.  2.00000000
 
ion      s      p      d    tot
    1  0.024  0.061  0.000  0.085
    2  0.015  0.337  0.006  0.357
tot    0.039  0.398  0.006  0.442
 
band     4 # energy    2.61045325 # occ.  2.00000000
 
ion      s      p      d    tot
    1  0.000  0.073  0.000  0.073
    2  0.000  0.365  0.004  0.369
tot    0.000  0.438  0.004  0.442
 
band     5 # energy    6.54142878 # occ.  0.00000000
 
ion      s      p      d    tot
    1  0.127  0.054  0.000  0.181
    2  0.091  0.093  0.030  0.214
tot    0.218  0.147  0.030  0.395
 
band     6 # energy    7.98945452 # occ.  0.00000000
 
ion      s      p      d    tot
    1  0.031  0.138  0.000  0.169
    2  0.031  0.060  0.047  0.138
tot    0.062  0.197  0.047  0.306
 
band     7 # energy    9.09358648 # occ.  0.00000000
 
ion      s      p      d    tot
    1  0.000  0.150  0.000  0.150
    2  0.000  0.081  0.065  0.146
tot    0.000  0.231  0.065  0.296
 
band     8 # energy    9.54733882 # occ.  0.00000000
 
ion      s      p      d    tot
    1  0.023  0.053  0.000  0.076
    2  0.017  0.119  0.056  0.192
tot    0.040  0.172  0.056  0.268
 

 k-point     9 :    0.44444444 0.11111111 0.00000000     weight = 0.03292181

band     1 # energy   -6.83074855 # occ.  2.00000000
 
ion      s      p      d    tot
    1  0.034  0.013  0.000  0.047
    2  0.540  0.002  0.000  0.542
tot    0.574  0.014  0.000  0.589
 
band     2 # energy   -1.42781941 # occ.  2.00000000
 
ion      s      p      d    tot
    1  0.127  0.028  0.000  0.155
    2  0.031  0.184  0.002  0.217
tot    0.159  0.212  0.002  0.372
 
band     3 # energy    2.18511026 # occ.  2.00000000
 
ion      s      p      d    tot
    1  0.030  0.063  0.000  0.093
    2  0.017  0.316  0.005  0.339
tot    0.047  0.379  0.005  0.432
 
band     4 # energy    2.53585779 # occ.  2.00000000
 
ion      s      p      d    tot
    1  0.000  0.077  0.000  0.077
    2  0.000  0.365  0.004  0.368
tot    0.000  0.442  0.004  0.445
 
band     5 # energy    6.32805799 # occ.  0.00000000
 
ion      s      p      d    tot
    1  0.142  0.042  0.000  0.184
    2  0.096  0.085  0.030  0.211
tot    0.237  0.127  0.030  0.394
 
band     6 # energy    7.99333790 # occ.  0.00000000
 
ion      s      p      d    tot
    1  0.014  0.107  0.000  0.121
    2  0.015  0.051  0.054  0.120
tot    0.029  0.158  0.054  0.241
 
band     7 # energy    8.84588308 # occ.  0.00000000
 
ion      s      p      d    tot
    1  0.000  0.126  0.000  0.126
    2  0.000  0.063  0.066  0.129
tot    0.000  0.189  0.066  0.255
 
band     8 # energy   10.78645516 # occ.  0.00000000
 
ion      s      p      d    tot
    1  0.017  0.069  0.000  0.087
    2  0.011  0.164  0.044  0.220
tot    0.029  0.233  0.044  0.307
 

 k-point    10 :   -0.44444444 0.11111111 0.00000000     weight = 0.03292181

band     1 # energy   -6.68553933 # occ.  2.00000000
 
ion      s      p      d    tot
    1  0.027  0.014  0.000  0.041
    2  0.559  0.001  0.000  0.560
tot    0.586  0.015  0.000  0.601
 
band     2 # energy   -1.73431430 # occ.  2.00000000
 
ion      s      p      d    tot
    1  0.135  0.027  0.000  0.162
    2  0.013  0.181  0.002  0.195
tot    0.147  0.208  0.002  0.357
 
band     3 # energy    1.97943599 # occ.  2.00000000
 
ion      s      p      d    tot
    1  0.030  0.065  0.000  0.095
    2  0.017  0.307  0.005  0.329
tot    0.047  0.372  0.005  0.423
 
band     4 # energy    2.63613610 # occ.  2.00000000
 
ion      s      p      d    tot
    1  0.000  0.076  0.000  0.076
    2  0.000  0.373  0.003  0.377
tot    0.000  0.449  0.003  0.453
 
band     5 # energy    6.28852294 # occ.  0.00000000
 
ion      s      p      d    tot
    1  0.151  0.039  0.000  0.190
    2  0.101  0.080  0.030  0.211
tot    0.252  0.119  0.030  0.400
 
band     6 # energy    8.03326605 # occ.  0.00000000
 
ion      s      p      d    tot
    1  0.007  0.098  0.000  0.105
    2  0.011  0.054  0.056  0.120
tot    0.018  0.152  0.056  0.225
 
band     7 # energy    8.62391575 # occ.  0.00000000
 
ion      s      p      d    tot
    1  0.000  0.123  0.000  0.123
    2  0.000  0.052  0.065  0.117
tot    0.000  0.174  0.065  0.240
 
band     8 # energy   11.61680027 # occ.  0.00000000
 
ion      s      p      d    tot
    1  0.006  0.050  0.000  0.057
    2  0.001  0.215  0.019  0.235
tot    0.007  0.265  0.019  0.291
 

 k-point    11 :   -0.33333333 0.11111111 0.00000000     weight = 0.03292181

band     1 # energy   -6.96013554 # occ.  2.00000000
 
ion      s      p      d    tot
    1  0.040  0.011  0.000  0.051
    2  0.525  0.003  0.000  0.528
tot    0.565  0.014  0.000  0.579
 
band     2 # energy   -1.13183852 # occ.  2.00000000
 
ion      s      p      d    tot
    1  0.121  0.029  0.000  0.150
    2  0.046  0.187  0.003  0.235
tot    0.167  0.216  0.003  0.385
 
band     3 # energy    1.97522012 # occ.  2.00000000
 
ion      s      p      d    tot
    1  0.026  0.066  0.000  0.092
    2  0.013  0.307  0.005  0.325
tot    0.039  0.373  0.005  0.417
 
band     4 # energy    2.88284709 # occ.  2.00000000
 
ion      s      p      d    tot
    1  0.000  0.071  0.000  0.071
    2  0.000  0.389  0.004  0.393
tot    0.000  0.460  0.004  0.464
 
band     5 # energy    6.43079452 # occ.  0.00000000
 
ion      s      p      d    tot
    1  0.150  0.047  0.000  0.197
    2  0.107  0.079  0.029  0.214
tot    0.257  0.125  0.029  0.411
 
band     6 # energy    8.26800708 # occ.  0.00000000
 
ion      s      p      d    tot
    1  0.004  0.106  0.000  0.110
    2  0.009  0.061  0.057  0.127
tot    0.013  0.167  0.057  0.237
 
band     7 # energy    8.54448229 # occ.  0.00000000
 
ion      s      p      d    tot
    1  0.000  0.142  0.000  0.142
    2  0.000  0.048  0.063  0.110
tot    0.000  0.190  0.063  0.252
 
band     8 # energy   10.89399549 # occ.  0.00000000
 
ion      s      p      d    tot
    1  0.031  0.058  0.000  0.089
    2  0.022  0.231  0.031  0.283
tot    0.053  0.288  0.031  0.372
 

 k-point    12 :   -0.22222222 0.11111111 0.00000000     weight = 0.03292181

band     1 # energy   -7.40917377 # occ.  2.00000000
 
ion      s      p      d    tot
    1  0.055  0.007  0.000  0.062
    2  0.486  0.003  0.000  0.489
tot    0.541  0.010  0.000  0.551
 
band     2 # energy    0.08298948 # occ.  2.00000000
 
ion      s      p      d    tot
    1  0.101  0.030  0.000  0.131
    2  0.085  0.209  0.003  0.297
tot    0.186  0.239  0.003  0.428
 
band     3 # energy    2.20935648 # occ.  2.00000000
 
ion      s      p      d    tot
    1  0.018  0.067  0.000  0.085
    2  0.007  0.320  0.006  0.332
tot    0.024  0.387  0.006  0.417
 
band     4 # energy    3.20217814 # occ.  2.00000000
 
ion      s      p      d    tot
    1  0.000  0.060  0.000  0.060
    2  0.000  0.412  0.004  0.417
tot    0.000  0.472  0.004  0.477
 
band     5 # energy    6.69546030 # occ.  0.00000000
 
ion      s      p      d    tot
    1  0.143  0.062  0.000  0.205
    2  0.120  0.084  0.025  0.230
tot    0.263  0.146  0.025  0.434
 
band     6 # energy    8.38826812 # occ.  0.00000000
 
ion      s      p      d    tot
    1  0.018  0.127  0.000  0.145
    2  0.019  0.082  0.053  0.154
tot    0.037  0.209  0.053  0.299
 
band     7 # energy    8.43038353 # occ.  0.00000000
 
ion      s      p      d    tot
    1  0.000  0.186  0.000  0.186
    2  0.000  0.046  0.059  0.105
tot    0.000  0.232  0.059  0.291
 
band     8 # energy    9.64219362 # occ.  0.00000000
 
ion      s      p      d    tot
    1  0.041  0.062  0.000  0.103
    2  0.032  0.190  0.040  0.263
tot    0.073  0.251  0.040  0.365
 

 k-point    13 :   -0.11111111 0.11111111 0.00000000     weight = 0.01646091

band     1 # energy   -7.78321890 # occ.  2.00000000
 
ion      s      p      d    tot
    1  0.066  0.003  0.000  0.069
    2  0.463  0.002  0.000  0.464
tot    0.528  0.005  0.000  0.533
 
band     2 # energy    1.44929967 # occ.  2.00000000
 
ion      s      p      d    tot
    1  0.081  0.030  0.000  0.110
    2  0.099  0.248  0.004  0.351
tot    0.180  0.278  0.004  0.461
 
band     3 # energy    2.74887855 # occ.  2.00000000
 
ion      s      p      d    tot
    1  0.007  0.063  0.000  0.070
    2  0.000  0.358  0.006  0.364
tot    0.007  0.420  0.006  0.434
 
band     4 # energy    3.45067602 # occ.  2.00000000
 
ion      s      p      d    tot
    1  0.000  0.047  0.000  0.047
    2  0.000  0.433  0.005  0.438
tot    0.000  0.480  0.005  0.485
 
band     5 # energy    6.68088972 # occ.  0.00000000
 
ion      s      p      d    tot
    1  0.146  0.055  0.000  0.201
    2  0.179  0.106  0.012  0.297
tot    0.325  0.161  0.012  0.498
 
band     6 # energy    7.87828274 # occ.  0.00000000
 
ion      s      p      d    tot
    1  0.038  0.132  0.000  0.169
    2  0.013  0.083  0.053  0.149
tot    0.051  0.215  0.053  0.318
 
band     7 # energy    8.09967319 # occ.  0.00000000
 
ion      s      p      d    tot
    1  0.000  0.212  0.000  0.212
    2  0.000  0.032  0.061  0.093
tot    0.000  0.244  0.061  0.305
 
band     8 # energy    9.00778668 # occ.  0.00000000
 
ion      s      p      d    tot
    1  0.015  0.146  0.000  0.160
    2  0.021  0.135  0.052  0.209
tot    0.036  0.281  0.052  0.369
 

 k-point    14 :    0.22222222 0.22222222 0.00000000     weight = 0.00823045

band     1 # energy   -7.49290332 # occ.  2.00000000
 
ion      s      p      d    tot
    1  0.058  0.006  0.000  0.064
    2  0.479  0.003  0.000  0.482
tot    0.537  0.009  0.000  0.546
 
band     2 # energy    0.76441027 # occ.  2.00000000
 
ion      s      p      d    tot
    1  0.119  0.015  0.000  0.134
    2  0.117  0.219  0.004  0.339
tot    0.235  0.235  0.004  0.473
 
band     3 # energy    2.45617196 # occ.  2.00000000
 
ion      s      p      d    tot
    1  0.000  0.074  0.000  0.074
    2  0.000  0.352  0.005  0.356
tot    0.000  0.426  0.005  0.430
 
band     4 # energy    2.45617225 # occ.  2.00000000
 
ion      s      p      d    tot
    1  0.000  0.074  0.000  0.074
    2  0.000  0.352  0.005  0.356
tot    0.000  0.426  0.005  0.430
 
band     5 # energy    6.36211793 # occ.  0.00000000
 
ion      s      p      d    tot
    1  0.065  0.118  0.000  0.183
    2  0.012  0.014  0.048  0.074
tot    0.077  0.132  0.048  0.257
 
band     6 # energy    7.41104192 # occ.  0.00000000
 
ion      s      p      d    tot
    1  0.102  0.024  0.000  0.126
    2  0.094  0.152  0.023  0.269
tot    0.196  0.176  0.023  0.395
 
band     7 # energy    9.83984527 # occ.  0.00000000
 
ion      s      p      d    tot
    1  0.000  0.179  0.000  0.179
    2  0.000  0.122  0.063  0.185
tot    0.000  0.301  0.063  0.364
 
band     8 # energy    9.83984567 # occ.  0.00000000
 
ion      s      p      d    tot
    1  0.000  0.179  0.000  0.179
    2  0.000  0.122  0.063  0.185
tot    0.000  0.301  0.063  0.364
 

 k-point    15 :    0.33333333 0.22222222 0.00000000     weight = 0.03292181

band     1 # energy   -7.14007579 # occ.  2.00000000
 
ion      s      p      d    tot
    1  0.046  0.010  0.000  0.056
    2  0.505  0.004  0.000  0.509
tot    0.551  0.014  0.000  0.564
 
band     2 # energy   -0.19088978 # occ.  2.00000000
 
ion      s      p      d    tot
    1  0.134  0.017  0.000  0.151
    2  0.092  0.199  0.003  0.295
tot    0.227  0.216  0.003  0.446
 
band     3 # energy    1.97827977 # occ.  2.00000000
 
ion      s      p      d    tot
    1  0.014  0.073  0.000  0.087
    2  0.005  0.314  0.005  0.324
tot    0.018  0.388  0.005  0.411
 
band     4 # energy    2.17956709 # occ.  2.00000000
 
ion      s      p      d    tot
    1  0.000  0.080  0.000  0.080
    2  0.000  0.339  0.004  0.343
tot    0.000  0.420  0.004  0.423
 
band     5 # energy    6.27033789 # occ.  0.00000000
 
ion      s      p      d    tot
    1  0.054  0.094  0.000  0.148
    2  0.025  0.034  0.042  0.101
tot    0.079  0.128  0.042  0.249
 
band     6 # energy    7.40145378 # occ.  0.00000000
 
ion      s      p      d    tot
    1  0.097  0.023  0.000  0.120
    2  0.046  0.121  0.037  0.204
tot    0.143  0.145  0.037  0.325
 
band     7 # energy    9.69867817 # occ.  0.00000000
 
ion      s      p      d    tot
    1  0.021  0.111  0.000  0.132
    2  0.040  0.104  0.055  0.198
tot    0.061  0.215  0.055  0.330
 
band     8 # energy   10.33311309 # occ.  0.00000000
 
ion      s      p      d    tot
    1  0.000  0.156  0.000  0.156
    2  0.000  0.124  0.065  0.189
tot    0.000  0.279  0.065  0.344
 

 k-point    16 :    0.44444444 0.22222222-0.00000000     weight = 0.03292181

band     1 # energy   -6.73081959 # occ.  2.00000000
 
ion      s      p      d    tot
    1  0.029  0.014  0.000  0.044
    2  0.546  0.003  0.000  0.549
tot    0.575  0.017  0.000  0.592
 
band     2 # energy   -1.10445397 # occ.  2.00000000
 
ion      s      p      d    tot
    1  0.151  0.019  0.000  0.170
    2  0.047  0.185  0.003  0.235
tot    0.199  0.203  0.003  0.405
 
band     3 # energy    1.35629173 # occ.  2.00000000
 
ion      s      p      d    tot
    1  0.028  0.067  0.000  0.095
    2  0.011  0.277  0.005  0.293
tot    0.040  0.344  0.005  0.388
 
band     4 # energy    2.09399152 # occ.  2.00000000
 
ion      s      p      d    tot
    1  0.000  0.083  0.000  0.083
    2  0.000  0.338  0.003  0.341
tot    0.000  0.421  0.003  0.424
 
band     5 # energy    6.25746599 # occ.  0.00000000
 
ion      s      p      d    tot
    1  0.063  0.062  0.000  0.125
    2  0.038  0.045  0.040  0.122
tot    0.101  0.107  0.040  0.248
 
band     6 # energy    8.35787352 # occ.  0.00000000
 
ion      s      p      d    tot
    1  0.092  0.026  0.000  0.118
    2  0.020  0.177  0.040  0.238
tot    0.112  0.203  0.040  0.356
 
band     7 # energy    9.43771046 # occ.  0.00000000
 
ion      s      p      d    tot
    1  0.015  0.121  0.000  0.136
    2  0.050  0.063  0.054  0.167
tot    0.065  0.184  0.054  0.303
 
band     8 # energy   10.16946751 # occ.  0.00000000
 
ion      s      p      d    tot
    1  0.000  0.125  0.000  0.125
    2  0.000  0.101  0.067  0.168
tot    0.000  0.226  0.067  0.293
 

 k-point    17 :   -0.44444444 0.22222222 0.00000000     weight = 0.03292181

band     1 # energy   -6.49737445 # occ.  2.00000000
 
ion      s      p      d    tot
    1  0.018  0.017  0.000  0.035
    2  0.577  0.001  0.000  0.578
tot    0.595  0.018  0.000  0.613
 
band     2 # energy   -1.54092695 # occ.  2.00000000
 
ion      s      p      d    tot
    1  0.164  0.019  0.000  0.183
    2  0.012  0.179  0.004  0.195
tot    0.176  0.198  0.004  0.378
 
band     3 # energy    0.89868177 # occ.  2.00000000
 
ion      s      p      d    tot
    1  0.033  0.063  0.000  0.096
    2  0.014  0.260  0.004  0.278
tot    0.047  0.323  0.004  0.374
 
band     4 # energy    2.21491863 # occ.  2.00000000
 
ion      s      p      d    tot
    1  0.000  0.083  0.000  0.083
    2  0.000  0.346  0.003  0.349
tot    0.000  0.428  0.003  0.432
 
band     5 # energy    6.35077830 # occ.  0.00000000
 
ion      s      p      d    tot
    1  0.076  0.053  0.000  0.129
    2  0.043  0.046  0.040  0.129
tot    0.120  0.099  0.040  0.258
 
band     6 # energy    8.90799794 # occ.  0.00000000
 
ion      s      p      d    tot
    1  0.066  0.048  0.000  0.114
    2  0.039  0.178  0.040  0.256
tot    0.105  0.226  0.040  0.370
 
band     7 # energy    9.82057615 # occ.  0.00000000
 
ion      s      p      d    tot
    1  0.000  0.117  0.000  0.117
    2  0.000  0.088  0.065  0.153
tot    0.000  0.205  0.065  0.271
 
band     8 # energy   10.40936026 # occ.  0.00000000
 
ion      s      p      d    tot
    1  0.026  0.096  0.000  0.123
    2  0.019  0.111  0.055  0.185
tot    0.045  0.208  0.055  0.308
 

 k-point    18 :   -0.33333333 0.22222222-0.00000000     weight = 0.03292181

band     1 # energy   -6.63896709 # occ.  2.00000000
 
ion      s      p      d    tot
    1  0.025  0.015  0.000  0.040
    2  0.558  0.002  0.000  0.561
tot    0.584  0.017  0.000  0.601
 
band     2 # energy   -1.26678877 # occ.  2.00000000
 
ion      s      p      d    tot
    1  0.156  0.021  0.000  0.177
    2  0.032  0.180  0.004  0.217
tot    0.188  0.201  0.004  0.393
 
band     3 # energy    0.77271586 # occ.  2.00000000
 
ion      s      p      d    tot
    1  0.029  0.065  0.000  0.093
    2  0.009  0.258  0.003  0.270
tot    0.038  0.322  0.003  0.364
 
band     4 # energy    2.51419747 # occ.  2.00000000
 
ion      s      p      d    tot
    1  0.000  0.079  0.000  0.079
    2  0.000  0.362  0.004  0.366
tot    0.000  0.441  0.004  0.445
 
band     5 # energy    6.67128748 # occ.  0.00000000
 
ion      s      p      d    tot
    1  0.091  0.057  0.000  0.148
    2  0.051  0.051  0.039  0.141
tot    0.141  0.108  0.039  0.289
 
band     6 # energy    8.93720419 # occ.  0.00000000
 
ion      s      p      d    tot
    1  0.040  0.069  0.000  0.109
    2  0.046  0.142  0.039  0.228
tot    0.086  0.211  0.039  0.336
 
band     7 # energy    9.50751138 # occ.  0.00000000
 
ion      s      p      d    tot
    1  0.000  0.135  0.000  0.135
    2  0.000  0.086  0.059  0.145
tot    0.000  0.221  0.059  0.280
 
band     8 # energy   10.76797481 # occ.  0.00000000
 
ion      s      p      d    tot
    1  0.061  0.046  0.000  0.106
    2  0.016  0.243  0.047  0.306
tot    0.077  0.289  0.047  0.412
 

 k-point    19 :   -0.22222222 0.22222222 0.00000000     weight = 0.01646091

band     1 # energy   -7.02637656 # occ.  2.00000000
 
ion      s      p      d    tot
    1  0.042  0.011  0.000  0.053
    2  0.516  0.003  0.000  0.520
tot    0.559  0.014  0.000  0.573
 
band     2 # energy   -0.56500839 # occ.  2.00000000
 
ion      s      p      d    tot
    1  0.132  0.024  0.000  0.155
    2  0.075  0.191  0.004  0.269
tot    0.206  0.214  0.004  0.424
 
band     3 # energy    1.16907093 # occ.  2.00000000
 
ion      s      p      d    tot
    1  0.024  0.069  0.000  0.092
    2  0.001  0.272  0.005  0.278
tot    0.025  0.341  0.005  0.370
 
band     4 # energy    2.90474550 # occ.  2.00000000
 
ion      s      p      d    tot
    1  0.000  0.071  0.000  0.071
    2  0.000  0.388  0.004  0.393
tot    0.000  0.459  0.004  0.463
 
band     5 # energy    7.05997571 # occ.  0.00000000
 
ion      s      p      d    tot
    1  0.115  0.069  0.000  0.184