<?xml version="1.0" encoding="ISO-8859-1"?>
<modeling>
 <generator>
  <i name="program" type="string">vasp </i>
  <i name="version" type="string">5.4.4.18Apr17-6-g9f103f2a35  </i>
  <i name="subversion" type="string">(build Apr 10 2018 17:34:00) complex            parallel </i>
  <i name="platform" type="string">LinuxIFC </i>
  <i name="date" type="string">2018 10 04 </i>
  <i name="time" type="string">08:43:10 </i>
 </generator>
 <incar>
  <i type="string" name="SYSTEM"> AlAs</i>
  <i type="string" name="PREC">accurate  ! calcululation level (change</i>
  <i type="string" name="ALGO"> NORMAL    ! A Davidson blocked iteratio</i>
  <i type="logical" name="ADDGRID"> T  </i>
  <i type="int" name="ISPIN">     1</i>
  <i name="AMIX">      0.20000000</i>
  <i name="BMIX">      0.00100000</i>
  <i type="int" name="NELM">   100</i>
  <i type="int" name="NELMDL">    -8</i>
  <i type="int" name="NELMIN">     6</i>
  <i type="int" name="IBRION">     2</i>
  <i name="EDIFF">      0.00000010</i>
  <i name="EDIFFG">     -0.00100000</i>
  <i type="int" name="NSW">   100</i>
  <i type="int" name="ISIF">     3</i>
  <i name="ENCUT">    460.00000000</i>
  <i name="POTIM">      0.50000000</i>
  <i type="int" name="NEDOS">    11</i>
  <i type="logical" name="LREAL"> F  </i>
  <i type="logical" name="LPLANE"> T  </i>
  <i type="int" name="ISMEAR">     0</i>
  <i name="SIGMA">      0.01000000</i>
  <i type="int" name="NWRITE">     1</i>
  <i type="int" name="LMAXMIX">     6</i>
  <i type="logical" name="LWAVE"> F  </i>
  <i type="logical" name="LCHARG"> F  </i>
  <i type="int" name="LORBIT">    10</i>
  <i type="logical" name="LASPH"> T  </i>
  <v type="int" name="KPOINT_BSE">    -1     0     0     0</v>
  <i type="int" name="NELM">   100</i>
  <i type="logical" name="LASPH"> T  </i>
 </incar>
 <structure name="primitive_cell" >
  <crystal>
   <varray name="basis" >
    <v>       0.00000000       2.86639807       2.86639807 </v>
    <v>       2.86639807       0.00000000       2.86639807 </v>
    <v>       2.86639807       2.86639807       0.00000000 </v>
   </varray>
   <i name="volume">     47.10201681 </i>
   <varray name="rec_basis" >
    <v>      -0.17443495       0.17443495       0.17443495 </v>
    <v>       0.17443495      -0.17443495       0.17443495 </v>
    <v>       0.17443495       0.17443495      -0.17443495 </v>
   </varray>
  </crystal>
  <varray name="positions" >
   <v>       0.00000000       0.00000000       0.00000000 </v>
   <v>       0.25000000       0.25000000       0.25000000 </v>
  </varray>
 </structure>
 <varray name="primitive_index" >
  <v type="int" >        1 </v>
  <v type="int" >        2 </v>
 </varray>
 <kpoints>
  <generation param="Auto">
   <i name="subdivisionlength">     30.00000000 </i>
   <v type="int" name="divisions">       9        9        9 </v>
   <v name="usershift">      0.00000000       0.00000000       0.00000000 </v>
   <v name="genvec1">      0.11111111       0.00000000      -0.00000000 </v>
   <v name="genvec2">      0.00000000       0.11111111       0.00000000 </v>
   <v name="genvec3">     -0.00000000      -0.00000000       0.11111111 </v>
   <v name="shift">      0.00000000       0.00000000       0.00000000 </v>
  </generation>
  <varray name="kpointlist" >
   <v>       0.00000000       0.00000000       0.00000000 </v>
   <v>       0.11111111       0.00000000      -0.00000000 </v>
   <v>       0.22222222       0.00000000      -0.00000000 </v>
   <v>       0.33333333       0.00000000       0.00000000 </v>
   <v>       0.44444444       0.00000000      -0.00000000 </v>
   <v>       0.11111111       0.11111111       0.00000000 </v>
   <v>       0.22222222       0.11111111       0.00000000 </v>
   <v>       0.33333333       0.11111111      -0.00000000 </v>
   <v>       0.44444444       0.11111111       0.00000000 </v>
   <v>      -0.44444444       0.11111111       0.00000000 </v>
   <v>      -0.33333333       0.11111111       0.00000000 </v>
   <v>      -0.22222222       0.11111111       0.00000000 </v>
   <v>      -0.11111111       0.11111111       0.00000000 </v>
   <v>       0.22222222       0.22222222       0.00000000 </v>
   <v>       0.33333333       0.22222222       0.00000000 </v>
   <v>       0.44444444       0.22222222      -0.00000000 </v>
   <v>      -0.44444444       0.22222222       0.00000000 </v>
   <v>      -0.33333333       0.22222222      -0.00000000 </v>
   <v>      -0.22222222       0.22222222       0.00000000 </v>
   <v>       0.33333333       0.33333333       0.00000000 </v>
   <v>       0.44444444       0.33333333       0.00000000 </v>
   <v>      -0.44444444       0.33333333       0.00000000 </v>
   <v>      -0.33333333       0.33333333      -0.00000000 </v>
   <v>       0.44444444       0.44444444       0.00000000 </v>
   <v>      -0.44444444       0.44444444       0.00000000 </v>
   <v>       0.33333333       0.22222222       0.11111111 </v>
   <v>       0.44444444       0.22222222       0.11111111 </v>
   <v>      -0.44444444       0.22222222       0.11111111 </v>
   <v>       0.44444444       0.33333333       0.11111111 </v>
   <v>      -0.44444444       0.33333333       0.11111111 </v>
   <v>      -0.33333333       0.33333333       0.11111111 </v>
   <v>      -0.22222222       0.33333333       0.11111111 </v>
   <v>      -0.44444444       0.44444444       0.11111111 </v>
   <v>      -0.33333333       0.44444444       0.11111111 </v>
   <v>      -0.33333333       0.44444444       0.22222222 </v>
  </varray>
  <varray name="weights" >
   <v>       0.00137174 </v>
   <v>       0.01097394 </v>
   <v>       0.01097394 </v>
   <v>       0.01097394 </v>
   <v>       0.01097394 </v>
   <v>       0.00823045 </v>
   <v>       0.03292181 </v>
   <v>       0.03292181 </v>
   <v>       0.03292181 </v>
   <v>       0.03292181 </v>
   <v>       0.03292181 </v>
   <v>       0.03292181 </v>
   <v>       0.01646091 </v>
   <v>       0.00823045 </v>
   <v>       0.03292181 </v>
   <v>       0.03292181 </v>
   <v>       0.03292181 </v>
   <v>       0.03292181 </v>
   <v>       0.01646091 </v>
   <v>       0.00823045 </v>
   <v>       0.03292181 </v>
   <v>       0.03292181 </v>
   <v>       0.01646091 </v>
   <v>       0.00823045 </v>
   <v>       0.01646091 </v>
   <v>       0.03292181 </v>
   <v>       0.06584362 </v>
   <v>       0.06584362 </v>
   <v>       0.03292181 </v>
   <v>       0.06584362 </v>
   <v>       0.06584362 </v>
   <v>       0.03292181 </v>
   <v>       0.03292181 </v>
   <v>       0.03292181 </v>
   <v>       0.03292181 </v>
  </varray>
 </kpoints>
 <parameters>
  <separator name="general" >
   <i type="string" name="SYSTEM">AlAs</i>
   <i type="logical" name="LCOMPAT"> F  </i>
  </separator>
  <separator name="electronic" >
   <i type="string" name="PREC">accura</i>
   <i name="ENMAX">    460.00000000</i>
   <i name="ENAUG">    462.75800000</i>
   <i name="EDIFF">      0.00000010</i>
   <i type="int" name="IALGO">    38</i>
   <i type="int" name="IWAVPR">    11</i>
   <i type="int" name="NBANDS">     8</i>
   <i name="NELECT">      8.00000000</i>
   <i type="int" name="TURBO">     0</i>
   <i type="int" name="IRESTART">     0</i>
   <i type="int" name="NREBOOT">     0</i>
   <i type="int" name="NMIN">     0</i>
   <i name="EREF">      0.00000000</i>
   <separator name="electronic smearing" >
    <i type="int" name="ISMEAR">     0</i>
    <i name="SIGMA">      0.01000000</i>
    <i name="KSPACING">      0.50000000</i>
    <i type="logical" name="KGAMMA"> T  </i>
   </separator>
   <separator name="electronic projectors" >
    <i type="logical" name="LREAL"> F  </i>
    <v name="ROPT">      0.00000000      0.00000000</v>
    <i type="int" name="LMAXPAW">  -100</i>
    <i type="int" name="LMAXMIX">     6</i>
    <i type="logical" name="NLSPLINE"> F  </i>
   </separator>
   <separator name="electronic startup" >
    <i type="int" name="ISTART">     0</i>
    <i type="int" name="ICHARG">     2</i>
    <i type="int" name="INIWAV">     1</i>
   </separator>
   <separator name="electronic spin" >
    <i type="int" name="ISPIN">     1</i>
    <i type="logical" name="LNONCOLLINEAR"> F  </i>
    <v name="MAGMOM">      1.00000000      1.00000000</v>
    <i name="NUPDOWN">     -1.00000000</i>
    <i type="logical" name="LSORBIT"> F  </i>
    <v name="SAXIS">      0.00000000      0.00000000      1.00000000</v>
    <i type="logical" name="LSPIRAL"> F  </i>
    <v name="QSPIRAL">      0.00000000      0.00000000      0.00000000</v>
    <i type="logical" name="LZEROZ"> F  </i>
   </separator>
   <separator name="electronic exchange-correlation" >
    <i type="logical" name="LASPH"> T  </i>
    <i type="logical" name="LMETAGGA"> F  </i>
   </separator>
   <separator name="electronic convergence" >
    <i type="int" name="NELM">   100</i>
    <i type="int" name="NELMDL">    -8</i>
    <i type="int" name="NELMIN">     6</i>
    <i name="ENINI">    460.00000000</i>
    <separator name="electronic convergence detail" >
     <i type="logical" name="LDIAG"> T  </i>
     <i type="logical" name="LSUBROT"> F  </i>
     <i name="WEIMIN">      0.00100000</i>
     <i name="EBREAK">      0.00000000</i>
     <i name="DEPER">      0.30000000</i>
     <i type="int" name="NRMM">     4</i>
     <i name="TIME">      0.40000000</i>
    </separator>
   </separator>
   <separator name="electronic mixer" >
    <i name="AMIX">      0.20000000</i>
    <i name="BMIX">      0.00100000</i>
    <i name="AMIN">      0.10000000</i>
    <i name="AMIX_MAG">      0.80000000</i>
    <i name="BMIX_MAG">      0.00100000</i>
    <separator name="electronic mixer details" >
     <i type="int" name="IMIX">     4</i>
     <i type="logical" name="MIXFIRST"> F  </i>
     <i type="int" name="MAXMIX">   -45</i>
     <i name="WC">    100.00000000</i>
     <i type="int" name="INIMIX">     1</i>
     <i type="int" name="MIXPRE">     1</i>
     <i type="int" name="MREMOVE">     5</i>
    </separator>
   </separator>
   <separator name="electronic dipolcorrection" >
    <i type="logical" name="LDIPOL"> F  </i>
    <i type="logical" name="LMONO"> F  </i>
    <i type="int" name="IDIPOL">     0</i>
    <i name="EPSILON">      1.00000000</i>
    <v name="DIPOL">   -100.00000000   -100.00000000   -100.00000000</v>
    <i name="EFIELD">      0.00000000</i>
   </separator>
  </separator>
  <separator name="grids" >
   <i type="int" name="NGX">    28</i>
   <i type="int" name="NGY">    28</i>
   <i type="int" name="NGZ">    28</i>
   <i type="int" name="NGXF">    56</i>
   <i type="int" name="NGYF">    56</i>
   <i type="int" name="NGZF">    56</i>
   <i type="logical" name="ADDGRID"> T  </i>
  </separator>
  <separator name="ionic" >
   <i type="int" name="NSW">   100</i>
   <i type="int" name="IBRION">     2</i>
   <i type="int" name="MDALGO">     0</i>
   <i type="int" name="ISIF">     3</i>
   <i name="PSTRESS">      0.00000000</i>
   <i name="EDIFFG">     -0.00100000</i>
   <i type="int" name="NFREE">     1</i>
   <i name="POTIM">      0.50000000</i>
   <i name="SMASS">     -3.00000000</i>
   <i name="SCALEE">      1.00000000</i>
  </separator>
  <separator name="ionic md" >
   <i name="TEBEG">      0.00010000</i>
   <i name="TEEND">      0.00010000</i>
   <i type="int" name="NBLOCK">     1</i>
   <i type="int" name="KBLOCK">   100</i>
   <i type="int" name="NPACO">   256</i>
   <i name="APACO">     16.00000000</i>
  </separator>
  <separator name="symmetry" >
   <i type="int" name="ISYM">     2</i>
   <i name="SYMPREC">      0.00001000</i>
  </separator>
  <separator name="dos" >
   <i type="int" name="LORBIT">    10</i>
   <v name="RWIGS">     -1.00000000     -1.00000000</v>
   <i type="int" name="NEDOS">    11</i>
   <i name="EMIN">     10.00000000</i>
   <i name="EMAX">    -10.00000000</i>
   <i name="EFERMI">      0.00000000</i>
  </separator>
  <separator name="writing" >
   <i type="int" name="NWRITE">     1</i>
   <i type="logical" name="LWAVE"> F  </i>
   <i type="logical" name="LDOWNSAMPLE"> F  </i>
   <i type="logical" name="LCHARG"> F  </i>
   <i type="logical" name="LPARD"> F  </i>
   <i type="logical" name="LVTOT"> F  </i>
   <i type="logical" name="LVHAR"> F  </i>
   <i type="logical" name="LELF"> F  </i>
   <i type="logical" name="LOPTICS"> F  </i>
   <v name="STM">      0.00000000      0.00000000      0.00000000      0.00000000      0.00000000      0.00000000      0.00000000</v>
  </separator>
  <separator name="performance" >
   <i type="int" name="NPAR">     2</i>
   <i type="int" name="NSIM">     4</i>
   <i type="int" name="NBLK">    -1</i>
   <i type="logical" name="LPLANE"> T  </i>
   <i type="logical" name="LSCALAPACK"> T  </i>
   <i type="logical" name="LSCAAWARE"> F  </i>
   <i type="logical" name="LSCALU"> F  </i>
   <i type="logical" name="LASYNC"> F  </i>
   <i type="logical" name="LORBITALREAL"> F  </i>
  </separator>
  <separator name="miscellaneous" >
   <i type="int" name="IDIOT">     3</i>
   <i type="int" name="ISPECIAL">     0</i>
   <i type="logical" name="LMUSIC"> F  </i>
   <v name="POMASS">     26.98100000     74.92200000</v>
   <v name="DARWINR">      0.00000000      0.00000000</v>
   <v name="DARWINV">      1.00000000      1.00000000</v>
   <i type="logical" name="LCORR"> T  </i>
  </separator>
  <i type="logical" name="GGA_COMPAT"> T  </i>
  <i type="logical" name="LBERRY"> F  </i>
  <i type="int" name="ICORELEVEL">     0</i>
  <i type="logical" name="LDAU"> F  </i>
  <i type="int" name="I_CONSTRAINED_M">     0</i>
  <separator name="electronic exchange-correlation" >
   <i type="string" name="GGA">--</i>
   <i type="int" name="VOSKOWN">     0</i>
   <i type="logical" name="LHFCALC"> F  </i>
   <i type="string" name="PRECFOCK"></i>
   <i type="logical" name="LSYMGRAD"> F  </i>
   <i type="logical" name="LHFONE"> F  </i>
   <i type="logical" name="LRHFCALC"> F  </i>
   <i type="logical" name="LTHOMAS"> F  </i>
   <i type="logical" name="LMODELHF"> F  </i>
   <i name="ENCUT4O">     -1.00000000</i>
   <i type="int" name="EXXOEP">     0</i>
   <i type="int" name="FOURORBIT">     0</i>
   <i name="AEXX">      0.00000000</i>
   <i name="HFALPHA">      0.00000000</i>
   <i name="MCALPHA">      0.00000000</i>
   <i name="ALDAX">      1.00000000</i>
   <i name="AGGAX">      1.00000000</i>
   <i name="ALDAC">      1.00000000</i>
   <i name="AGGAC">      1.00000000</i>
   <i type="int" name="NKREDX">     1</i>
   <i type="int" name="NKREDY">     1</i>
   <i type="int" name="NKREDZ">     1</i>
   <i type="logical" name="SHIFTRED"> F  </i>
   <i type="logical" name="ODDONLY"> F  </i>
   <i type="logical" name="EVENONLY"> F  </i>
   <i type="int" name="LMAXFOCK">     0</i>
   <i type="int" name="NMAXFOCKAE">     0</i>
   <i type="logical" name="LFOCKAEDFT"> F  </i>
   <i name="HFSCREEN">      0.00000000</i>
   <i name="HFSCREENC">      0.00000000</i>
   <i type="int" name="NBANDSGWLOW">     0</i>
  </separator>
  <separator name="vdW DFT" >
   <i type="logical" name="LUSE_VDW"> F  </i>
   <i name="Zab_VDW">     -0.84910000</i>
   <i name="PARAM1">      0.12340000</i>
   <i name="PARAM2">      1.00000000</i>
   <i name="PARAM3">      0.00000000</i>
  </separator>
  <separator name="model GW" >
   <i type="int" name="MODEL_GW">     0</i>
   <i name="MODEL_EPS0">     14.13060504</i>
   <i name="MODEL_ALPHA">      1.00000000</i>
  </separator>
  <separator name="linear response parameters" >
   <i type="logical" name="LEPSILON"> F  </i>
   <i type="logical" name="LRPA"> F  </i>
   <i type="logical" name="LNABLA"> F  </i>
   <i type="logical" name="LVEL"> F  </i>
   <i type="int" name="KINTER">     0</i>
   <i name="CSHIFT">      0.10000000</i>
   <i name="OMEGAMAX">     -1.00000000</i>
   <i name="DEG_THRESHOLD">      0.00200000</i>
   <i name="RTIME">     -0.10000000</i>
   <i name="WPLASMAI">      0.00000000</i>
   <v name="DFIELD">      0.00000000      0.00000000      0.00000000</v>
   <v name="WPLASMA">      0.00000000      0.00000000      0.00000000      0.00000000      0.00000000      0.00000000      0.00000000      0.00000000      0.00000000</v>
  </separator>
  <separator name="orbital magnetization" >
   <i type="logical" name="NUCIND"> F  </i>
   <v name="MAGPOS">      0.00000000      0.00000000      0.00000000</v>
   <i type="logical" name="LNICSALL"> T  </i>
   <i type="logical" name="ORBITALMAG"> F  </i>
   <i type="logical" name="LMAGBLOCH"> F  </i>
   <i type="logical" name="LCHIMAG"> F  </i>
   <i type="logical" name="LGAUGE"> T  </i>
   <i type="int" name="MAGATOM">     0</i>
   <v name="MAGDIPOL">      0.00000000      0.00000000      0.00000000</v>
   <v name="AVECCONST">      0.00000000      0.00000000      0.00000000</v>
  </separator>
  <separator name="response functions" >
   <i type="logical" name="LADDER"> F  </i>
   <i type="logical" name="LRPAFORCE"> F  </i>
   <i type="logical" name="LFXC"> F  </i>
   <i type="logical" name="LHARTREE"> T  </i>
   <i type="int" name="IBSE">     0</i>
   <v type="int" name="KPOINT">    -1     0     0     0</v>
   <i type="logical" name="LTCTE"> F  </i>
   <i type="logical" name="LTETE"> F  </i>
   <i type="logical" name="LTRIPLET"> F  </i>
   <i type="logical" name="LFXCEPS"> F  </i>
   <i type="logical" name="LFXHEG"> F  </i>
   <i type="int" name="NATURALO">     2</i>
   <i type="logical" name="L2ORDER"> F  </i>
   <i type="logical" name="LMP2LT"> F  </i>
   <i type="logical" name="LUSEW"> F  </i>
   <i name="ENCUTGW">     -2.00000000</i>
   <i name="ENCUTGWSOFT">     -2.00000000</i>
   <i name="ENCUTLF">     -1.00000000</i>
   <i type="int" name="LMAXMP2">    -1</i>
   <i name="SCISSOR">      0.00000000</i>
   <i type="int" name="NOMEGA">     0</i>
   <i type="int" name="NOMEGAR">     0</i>
   <i type="int" name="NBANDSGW">    -1</i>
   <i type="int" name="NBANDSO">    -1</i>
   <i type="int" name="NBANDSV">    -1</i>
   <i type="int" name="NELM">   100</i>
   <i type="int" name="NELMHF">     1</i>
   <i type="int" name="DIM">     3</i>
   <i type="int" name="ANTIRES">     0</i>
   <i name="OMEGAMAX">    -30.00000000</i>
   <i name="OMEGAMIN">    -30.00000000</i>
   <i name="OMEGATL">   -200.00000000</i>
   <i type="int" name="OMEGAGRID">   140</i>
   <i name="CSHIFT">     -0.10000000</i>
   <i type="logical" name="SELFENERGY"> F  </i>
   <i type="logical" name="LSPECTRAL"> F  </i>
   <i type="logical" name="LSPECTRALGW"> F  </i>
   <i type="logical" name="LSINGLES"> F  </i>
   <i type="logical" name="LFERMIGW"> F  </i>
   <i type="logical" name="ODDONLYGW"> F  </i>
   <i type="logical" name="EVENONLYGW"> F  </i>
   <i type="int" name="NKREDLFX">     1</i>
   <i type="int" name="NKREDLFY">     1</i>
   <i type="int" name="NKREDLFZ">     1</i>
   <i type="int" name="MAXMEM">  2800</i>
   <i type="int" name="TELESCOPE">     0</i>
   <i type="int" name="TAUPAR">     1</i>
   <i type="int" name="OMEGAPAR">    -1</i>
   <i name="LAMBDA">      1.00000000</i>
  </separator>
  <separator name="External order field" >
   <i name="OFIELD_KAPPA">      0.00000000</i>
   <v name="OFIELD_K">      0.00000000      0.00000000      0.00000000</v>
   <i name="OFIELD_Q6_NEAR">      0.00000000</i>
   <i name="OFIELD_Q6_FAR">      0.00000000</i>
   <i name="OFIELD_A">      0.00000000</i>
  </separator>
 </parameters>
 <atominfo>
  <atoms>       2 </atoms>
  <types>       2 </types>
  <array name="atoms" >
   <dimension dim="1">ion</dimension>
   <field type="string">element</field>
   <field type="int">atomtype</field>
   <set>
    <rc><c>Al</c><c>   1</c></rc>
    <rc><c>As</c><c>   2</c></rc>
   </set>
  </array>
  <array name="atomtypes" >
   <dimension dim="1">type</dimension>
   <field type="int">atomspertype</field>
   <field type="string">element</field>
   <field>mass</field>
   <field>valence</field>
   <field type="string">pseudopotential</field>
   <set>
    <rc><c>   1</c><c>Al</c><c>     26.98100000</c><c>      3.00000000</c><c>  PAW_PBE Al 04Jan2001                  </c></rc>
    <rc><c>   1</c><c>As</c><c>     74.92200000</c><c>      5.00000000</c><c>  PAW_PBE As 22Sep2009                  </c></rc>
   </set>
  </array>
 </atominfo>
 <structure name="initialpos" >
  <crystal>
   <varray name="basis" >
    <v>       0.00000000       2.86639807       2.86639807 </v>
    <v>       2.86639807       0.00000000       2.86639807 </v>
    <v>       2.86639807       2.86639807       0.00000000 </v>
   </varray>
   <i name="volume">     47.10201681 </i>
   <varray name="rec_basis" >
    <v>      -0.17443495       0.17443495       0.17443495 </v>
    <v>       0.17443495      -0.17443495       0.17443495 </v>
    <v>       0.17443495       0.17443495      -0.17443495 </v>
   </varray>
  </crystal>
  <varray name="positions" >
   <v>       0.00000000       0.00000000       0.00000000 </v>
   <v>       0.25000000       0.25000000       0.25000000 </v>
  </varray>
 </structure>
 <calculation>
  <scstep>
   <time name="dav">    0.05    0.05</time>
   <time name="total">    0.14    0.14</time>
   <energy>
    <i name="alphaZ">      7.86808274 </i>
    <i name="ewald">   -225.99325692 </i>
    <i name="hartreedc">    -18.07235870 </i>
    <i name="XCdc">    -38.33875935 </i>
    <i name="pawpsdc">    213.26457426 </i>
    <i name="pawaedc">   -159.87313877 </i>
    <i name="eentropy">     -0.00015980 </i>
    <i name="bandstr">     11.00356502 </i>
    <i name="atom">    223.72428952 </i>
    <i name="e_fr_energy">     13.58283802 </i>
    <i name="e_wo_entrp">     13.58299782 </i>
    <i name="e_0_energy">     13.58291792 </i>
   </energy>
  </scstep>
  <scstep>
   <time name="dav">    0.06    0.06</time>
   <time name="total">    0.06    0.06</time>
   <energy>
    <i name="e_fr_energy">     -9.06402696 </i>
    <i name="e_wo_entrp">     -9.06402696 </i>
    <i name="e_0_energy">     -9.06402696 </i>
   </energy>
  </scstep>
  <scstep>
   <time name="dav">    0.05    0.05</time>
   <time name="total">    0.05    0.05</time>
   <energy>
    <i name="e_fr_energy">     -9.60011384 </i>
    <i name="e_wo_entrp">     -9.60011384 </i>
    <i name="e_0_energy">     -9.60011384 </i>
   </energy>
  </scstep>
  <scstep>
   <time name="dav">    0.07    0.07</time>
   <time name="total">    0.07    0.07</time>
   <energy>
    <i name="e_fr_energy">     -9.60291988 </i>
    <i name="e_wo_entrp">     -9.60291988 </i>
    <i name="e_0_energy">     -9.60291988 </i>
   </energy>
  </scstep>
  <scstep>
   <time name="dav">    0.06    0.06</time>
   <time name="total">    0.06    0.06</time>
   <energy>
    <i name="e_fr_energy">     -9.60292764 </i>
    <i name="e_wo_entrp">     -9.60292764 </i>
    <i name="e_0_energy">     -9.60292764 </i>
   </energy>
  </scstep>
  <scstep>
   <time name="dav">    0.07    0.07</time>
   <time name="total">    0.07    0.07</time>
   <energy>
    <i name="e_fr_energy">     -9.60292772 </i>
    <i name="e_wo_entrp">     -9.60292772 </i>
    <i name="e_0_energy">     -9.60292772 </i>
   </energy>
  </scstep>
  <scstep>
   <time name="dav">    0.06    0.06</time>
   <time name="total">    0.06    0.06</time>
   <energy>
    <i name="e_fr_energy">     -9.60292772 </i>
    <i name="e_wo_entrp">     -9.60292772 </i>
    <i name="e_0_energy">     -9.60292772 </i>
   </energy>
  </scstep>
  <scstep>
   <time name="dav">    0.06    0.06</time>
   <time name="total">    0.08    0.08</time>
   <energy>
    <i name="e_fr_energy">     -9.60292772 </i>
    <i name="e_wo_entrp">     -9.60292772 </i>
    <i name="e_0_energy">     -9.60292772 </i>
   </energy>
  </scstep>
  <scstep>
   <time name="dav">    0.05    0.05</time>
   <time name="total">    0.16    0.16</time>
   <energy>
    <i name="e_fr_energy">     -9.46906619 </i>
    <i name="e_wo_entrp">     -9.46906619 </i>
    <i name="e_0_energy">     -9.46906619 </i>
   </energy>
  </scstep>
  <scstep>
   <time name="dav">    0.05    0.05</time>
   <time name="total">    0.16    0.16</time>
   <energy>
    <i name="e_fr_energy">     -9.39206936 </i>
    <i name="e_wo_entrp">     -9.39206936 </i>
    <i name="e_0_energy">     -9.39206936 </i>
   </energy>
  </scstep>
  <scstep>
   <time name="dav">    0.05    0.05</time>
   <time name="total">    0.16    0.16</time>
   <energy>
    <i name="e_fr_energy">     -9.38892806 </i>
    <i name="e_wo_entrp">     -9.38892806 </i>
    <i name="e_0_energy">     -9.38892806 </i>
   </energy>
  </scstep>
  <scstep>
   <time name="dav">    0.06    0.06</time>
   <time name="total">    0.17    0.17</time>
   <energy>
    <i name="e_fr_energy">     -9.38897637 </i>
    <i name="e_wo_entrp">     -9.38897637 </i>
    <i name="e_0_energy">     -9.38897637 </i>
   </energy>
  </scstep>
  <scstep>
   <time name="dav">    0.05    0.05</time>
   <time name="total">    0.16    0.16</time>
   <energy>
    <i name="e_fr_energy">     -9.38896762 </i>
    <i name="e_wo_entrp">     -9.38896762 </i>
    <i name="e_0_energy">     -9.38896762 </i>
   </energy>
  </scstep>
  <scstep>
   <time name="dav">    0.05    0.05</time>
   <time name="total">    0.16    0.16</time>
   <energy>
    <i name="e_fr_energy">     -9.38896819 </i>
    <i name="e_wo_entrp">     -9.38896819 </i>
    <i name="e_0_energy">     -9.38896819 </i>
   </energy>
  </scstep>
  <scstep>
   <time name="dav">    0.06    0.06</time>
   <time name="total">    0.17    0.17</time>
   <energy>
    <i name="e_fr_energy">     -9.38896729 </i>
    <i name="e_wo_entrp">     -9.38896729 </i>
    <i name="e_0_energy">     -9.38896729 </i>
   </energy>
  </scstep>
  <scstep>
   <time name="dav">    0.05    0.05</time>
   <time name="total">    0.16    0.16</time>
   <energy>
    <i name="e_fr_energy">     -9.38896540 </i>
    <i name="e_wo_entrp">     -9.38896540 </i>
    <i name="e_0_energy">     -9.38896540 </i>
   </energy>
  </scstep>
  <scstep>
   <time name="dav">    0.05    0.05</time>
   <time name="total">    0.14    0.14</time>
   <energy>
    <i name="alphaZ">      7.86808274 </i>
    <i name="ewald">   -225.99325692 </i>
    <i name="hartreedc">    -22.52985335 </i>
    <i name="XCdc">    -37.65205529 </i>
    <i name="pawpsdc">    401.80176134 </i>
    <i name="pawaedc">   -348.58793126 </i>
    <i name="eentropy">     -0.00000000 </i>
    <i name="bandstr">     -8.02000217 </i>
    <i name="atom">    223.72428952 </i>
    <i name="e_fr_energy">     -9.38896540 </i>
    <i name="e_wo_entrp">     -9.38896540 </i>
    <i name="e_0_energy">     -9.38896540 </i>
   </energy>
  </scstep>
  <structure>
   <crystal>
    <varray name="basis" >
     <v>       0.00000000       2.86639807       2.86639807 </v>
     <v>       2.86639807       0.00000000       2.86639807 </v>
     <v>       2.86639807       2.86639807       0.00000000 </v>
    </varray>
    <i name="volume">     47.10201681 </i>
    <varray name="rec_basis" >
     <v>      -0.17443495       0.17443495       0.17443495 </v>
     <v>       0.17443495      -0.17443495       0.17443495 </v>
     <v>       0.17443495       0.17443495      -0.17443495 </v>
    </varray>
   </crystal>
   <varray name="positions" >
    <v>       0.00000000       0.00000000       0.00000000 </v>
    <v>       0.25000000       0.25000000       0.25000000 </v>
   </varray>
  </structure>
  <varray name="forces" >
   <v>       0.00000000      -0.00000000       0.00000000 </v>
   <v>      -0.00000000       0.00000000      -0.00000000 </v>
  </varray>
  <varray name="stress" >
   <v>      -0.04191118       0.00000000       0.00000000 </v>
   <v>       0.00000000      -0.04191118       0.00000000 </v>
   <v>       0.00000000       0.00000000      -0.04191118 </v>
  </varray>
  <energy>
   <i name="e_fr_energy">     -9.38896540 </i>
   <i name="e_wo_entrp">     -9.38896540 </i>
   <i name="e_0_energy">     -0.00000000 </i>
  </energy>
  <time name="totalsc">    2.49    2.49</time>
  <eigenvalues>
   <array>
    <dimension dim="1">band</dimension>
    <dimension dim="2">kpoint</dimension>
    <dimension dim="3">spin</dimension>
    <field>eigene</field>
    <field>occ</field>
    <set>
     <set comment="spin 1">
      <set comment="kpoint 1">
       <r>   -8.0847    1.0000 </r>
       <r>    3.5722    1.0000 </r>
       <r>    3.5722    1.0000 </r>
       <r>    3.5722    1.0000 </r>
       <r>    5.3351    0.0000 </r>
       <r>    7.7953    0.0000 </r>
       <r>    7.7953    0.0000 </r>
       <r>    7.7953    0.0000 </r>
      </set>
      <set comment="kpoint 2">
       <r>   -7.9694    1.0000 </r>
       <r>    2.3629    1.0000 </r>
       <r>    3.4467    1.0000 </r>
       <r>    3.4467    1.0000 </r>
       <r>    6.0771    0.0000 </r>
       <r>    8.0181    0.0000 </r>
       <r>    8.0181    0.0000 </r>
       <r>    8.0414    0.0000 </r>
      </set>
      <set comment="kpoint 3">
       <r>   -7.6439    1.0000 </r>
       <r>    0.6528    1.0000 </r>
       <r>    3.1783    1.0000 </r>
       <r>    3.1783    1.0000 </r>
       <r>    6.1062    0.0000 </r>
       <r>    8.3734    0.0000 </r>
       <r>    8.3734    0.0000 </r>
       <r>    9.3866    0.0000 </r>
      </set>
      <set comment="kpoint 4">
       <r>   -7.1894    1.0000 </r>
       <r>   -0.8088    1.0000 </r>
       <r>    2.9306    1.0000 </r>
       <r>    2.9306    1.0000 </r>
       <r>    5.7953    0.0000 </r>
       <r>    8.3841    0.0000 </r>
       <r>    8.3841    0.0000 </r>
       <r>   10.8879    0.0000 </r>
      </set>
      <set comment="kpoint 5">
       <r>   -6.8103    1.0000 </r>
       <r>   -1.7088    1.0000 </r>
       <r>    2.7915    1.0000 </r>
       <r>    2.7915    1.0000 </r>
       <r>    5.6008    0.0000 </r>
       <r>    8.2471    0.0000 </r>
       <r>    8.2471    0.0000 </r>
       <r>   11.2511    0.0000 </r>
      </set>
      <set comment="kpoint 6">
       <r>   -7.9307    1.0000 </r>
       <r>    2.3756    1.0000 </r>
       <r>    3.1813    1.0000 </r>
       <r>    3.1813    1.0000 </r>
       <r>    6.5772    0.0000 </r>
       <r>    7.2814    0.0000 </r>
       <r>    8.4240    0.0000 </r>
       <r>    8.4240    0.0000 </r>
      </set>
      <set comment="kpoint 7">
       <r>   -7.6740    1.0000 </r>
       <r>    1.0723    1.0000 </r>
       <r>    2.8487    1.0000 </r>
       <r>    2.9153    1.0000 </r>
       <r>    6.8359    0.0000 </r>
       <r>    7.4543    0.0000 </r>
       <r>    8.9710    0.0000 </r>
       <r>    9.0839    0.0000 </r>
      </set>
      <set comment="kpoint 8">
       <r>   -7.2560    1.0000 </r>
       <r>   -0.3667    1.0000 </r>
       <r>    2.5368    1.0000 </r>
       <r>    2.6105    1.0000 </r>
       <r>    6.5414    0.0000 </r>
       <r>    7.9895    0.0000 </r>
       <r>    9.0936    0.0000 </r>
       <r>    9.5473    0.0000 </r>
      </set>
      <set comment="kpoint 9">
       <r>   -6.8307    1.0000 </r>
       <r>   -1.4278    1.0000 </r>
       <r>    2.1851    1.0000 </r>
       <r>    2.5359    1.0000 </r>
       <r>    6.3281    0.0000 </r>
       <r>    7.9933    0.0000 </r>
       <r>    8.8459    0.0000 </r>
       <r>   10.7865    0.0000 </r>
      </set>
      <set comment="kpoint 10">
       <r>   -6.6855    1.0000 </r>
       <r>   -1.7343    1.0000 </r>
       <r>    1.9794    1.0000 </r>
       <r>    2.6361    1.0000 </r>
       <r>    6.2885    0.0000 </r>
       <r>    8.0333    0.0000 </r>
       <r>    8.6239    0.0000 </r>
       <r>   11.6168    0.0000 </r>
      </set>
      <set comment="kpoint 11">
       <r>   -6.9601    1.0000 </r>
       <r>   -1.1318    1.0000 </r>
       <r>    1.9752    1.0000 </r>
       <r>    2.8828    1.0000 </r>
       <r>    6.4308    0.0000 </r>
       <r>    8.2680    0.0000 </r>
       <r>    8.5445    0.0000 </r>
       <r>   10.8940    0.0000 </r>
      </set>
      <set comment="kpoint 12">
       <r>   -7.4092    1.0000 </r>
       <r>    0.0830    1.0000 </r>
       <r>    2.2094    1.0000 </r>
       <r>    3.2022    1.0000 </r>
       <r>    6.6955    0.0000 </r>
       <r>    8.3883    0.0000 </r>
       <r>    8.4304    0.0000 </r>
       <r>    9.6422    0.0000 </r>
      </set>
      <set comment="kpoint 13">
       <r>   -7.7832    1.0000 </r>
       <r>    1.4493    1.0000 </r>
       <r>    2.7489    1.0000 </r>
       <r>    3.4507    1.0000 </r>
       <r>    6.6809    0.0000 </r>
       <r>    7.8783    0.0000 </r>
       <r>    8.0997    0.0000 </r>
       <r>    9.0078    0.0000 </r>
      </set>
      <set comment="kpoint 14">
       <r>   -7.4929    1.0000 </r>
       <r>    0.7644    1.0000 </r>
       <r>    2.4562    1.0000 </r>
       <r>    2.4562    1.0000 </r>
       <r>    6.3621    0.0000 </r>
       <r>    7.4110    0.0000 </r>
       <r>    9.8398    0.0000 </r>
       <r>    9.8398    0.0000 </r>
      </set>
      <set comment="kpoint 15">
       <r>   -7.1401    1.0000 </r>
       <r>   -0.1909    1.0000 </r>
       <r>    1.9783    1.0000 </r>
       <r>    2.1796    1.0000 </r>
       <r>    6.2703    0.0000 </r>
       <r>    7.4015    0.0000 </r>
       <r>    9.6987    0.0000 </r>
       <r>   10.3331    0.0000 </r>
      </set>
      <set comment="kpoint 16">
       <r>   -6.7308    1.0000 </r>
       <r>   -1.1045    1.0000 </r>
       <r>    1.3563    1.0000 </r>
       <r>    2.0940    1.0000 </r>
       <r>    6.2575    0.0000 </r>
       <r>    8.3579    0.0000 </r>
       <r>    9.4377    0.0000 </r>
       <r>   10.1695    0.0000 </r>
      </set>
      <set comment="kpoint 17">
       <r>   -6.4974    1.0000 </r>
       <r>   -1.5409    1.0000 </r>
       <r>    0.8987    1.0000 </r>
       <r>    2.2149    1.0000 </r>
       <r>    6.3508    0.0000 </r>
       <r>    8.9080    0.0000 </r>
       <r>    9.8206    0.0000 </r>
       <r>   10.4094    0.0000 </r>
      </set>
      <set comment="kpoint 18">
       <r>   -6.6390    1.0000 </r>
       <r>   -1.2668    1.0000 </r>
       <r>    0.7727    1.0000 </r>
       <r>    2.5142    1.0000 </r>
       <r>    6.6713    0.0000 </r>
       <r>    8.9372    0.0000 </r>
       <r>    9.5075    0.0000 </r>
       <r>   10.7680    0.0000 </r>
      </set>
      <set comment="kpoint 19">
       <r>   -7.0264    1.0000 </r>
       <r>   -0.5650    1.0000 </r>
       <r>    1.1691    1.0000 </r>
       <r>    2.9047    1.0000 </r>
       <r>    7.0600    0.0000 </r>
       <r>    8.8376    0.0000 </r>
       <r>    9.0290    0.0000 </r>
       <r>    9.4806    0.0000 </r>
      </set>
      <set comment="kpoint 20">
       <r>   -6.8686    1.0000 </r>
       <r>   -0.6504    1.0000 </r>
       <r>    1.8507    1.0000 </r>
       <r>    1.8507    1.0000 </r>
       <r>    5.5874    0.0000 </r>
       <r>    6.5526    0.0000 </r>
       <r>   11.5416    0.0000 </r>
       <r>   11.5416    0.0000 </r>
      </set>
      <set comment="kpoint 21">
       <r>   -6.5342    1.0000 </r>
       <r>   -1.2247    1.0000 </r>
       <r>    1.2975    1.0000 </r>
       <r>    1.7169    1.0000 </r>
       <r>    5.6164    0.0000 </r>
       <r>    6.6814    0.0000 </r>
       <r>   11.4535    0.0000 </r>
       <r>   11.8548    0.0000 </r>
      </set>
      <set comment="kpoint 22">
       <r>   -6.3127    1.0000 </r>
       <r>   -1.4833    1.0000 </r>
       <r>    0.5338    1.0000 </r>
       <r>    1.8042    1.0000 </r>
       <r>    5.7924    0.0000 </r>
       <r>    8.0392    0.0000 </r>
       <r>   11.1595    0.0000 </r>
       <r>   11.4795    0.0000 </r>
      </set>
      <set comment="kpoint 23">
       <r>   -6.3638    1.0000 </r>
       <r>   -1.3762    1.0000 </r>
       <r>    0.2032    1.0000 </r>
       <r>    2.0949    1.0000 </r>
       <r>    6.1645    0.0000 </r>
       <r>    9.7689    0.0000 </r>
       <r>   10.7362    0.0000 </r>
       <r>   10.9671    0.0000 </r>
      </set>
      <set comment="kpoint 24">
       <r>   -6.3248    1.0000 </r>
       <r>   -1.5910    1.0000 </r>
       <r>    1.5239    1.0000 </r>
       <r>    1.5239    1.0000 </r>
       <r>    5.1331    0.0000 </r>
       <r>    5.9383    0.0000 </r>
       <r>   13.2120    0.0000 </r>
       <r>   13.2120    0.0000 </r>
      </set>
      <set comment="kpoint 25">
       <r>   -6.2311    1.0000 </r>
       <r>   -1.6722    1.0000 </r>
       <r>    1.0575    1.0000 </r>
       <r>    1.5550    1.0000 </r>
       <r>    5.3637    0.0000 </r>
       <r>    6.4152    0.0000 </r>
       <r>   12.9984    0.0000 </r>
       <r>   13.0078    0.0000 </r>
      </set>
      <set comment="kpoint 26">
       <r>   -7.3678    1.0000 </r>
       <r>    0.2361    1.0000 </r>
       <r>    1.9770    1.0000 </r>
       <r>    2.8149    1.0000 </r>
       <r>    7.1414    0.0000 </r>
       <r>    7.5242    0.0000 </r>
       <r>    8.9822    0.0000 </r>
       <r>    9.5641    0.0000 </r>
      </set>
      <set comment="kpoint 27">
       <r>   -6.9465    1.0000 </r>
       <r>   -0.7767    1.0000 </r>
       <r>    1.4272    1.0000 </r>
       <r>    2.5065    1.0000 </r>
       <r>    7.1058    0.0000 </r>
       <r>    7.9486    0.0000 </r>
       <r>    9.0741    0.0000 </r>
       <r>    9.9255    0.0000 </r>
      </set>
      <set comment="kpoint 28">
       <r>   -6.6032    1.0000 </r>
       <r>   -1.4966    1.0000 </r>
       <r>    1.2113    1.0000 </r>
       <r>    2.2648    1.0000 </r>
       <r>    7.0082    0.0000 </r>
       <r>    7.7989    0.0000 </r>
       <r>    9.7272    0.0000 </r>
       <r>   10.6814    0.0000 </r>
      </set>
      <set comment="kpoint 29">
       <r>   -6.7878    1.0000 </r>
       <r>   -0.8159    1.0000 </r>
       <r>    1.3650    1.0000 </r>
       <r>    1.9046    1.0000 </r>
       <r>    6.4049    0.0000 </r>
       <r>    7.2740    0.0000 </r>
       <r>    9.6485    0.0000 </r>
       <r>   11.4398    0.0000 </r>
      </set>
      <set comment="kpoint 30">
       <r>   -6.4566    1.0000 </r>
       <r>   -1.3154    1.0000 </r>
       <r>    0.7807    1.0000 </r>
       <r>    1.6711    1.0000 </r>
       <r>    6.6610    0.0000 </r>
       <r>    8.2595    0.0000 </r>
       <r>    9.2762    0.0000 </r>
       <r>   11.6795    0.0000 </r>
      </set>
      <set comment="kpoint 31">
       <r>   -6.3636    1.0000 </r>
       <r>   -1.4212    1.0000 </r>
       <r>    0.4307    1.0000 </r>
       <r>    1.7605    1.0000 </r>
       <r>    6.9181    0.0000 </r>
       <r>    8.7335    0.0000 </r>
       <r>   10.1119    0.0000 </r>
       <r>   10.9275    0.0000 </r>
      </set>
      <set comment="kpoint 32">
       <r>   -6.5847    1.0000 </r>
       <r>   -1.1410    1.0000 </r>
       <r>    0.5968    1.0000 </r>
       <r>    2.1055    1.0000 </r>
       <r>    7.3319    0.0000 </r>
       <r>    8.3734    0.0000 </r>
       <r>    9.1263    0.0000 </r>
       <r>   11.1329    0.0000 </r>
      </set>
      <set comment="kpoint 33">
       <r>   -6.3013    1.0000 </r>
       <r>   -1.5153    1.0000 </r>
       <r>    1.0864    1.0000 </r>
       <r>    1.2941    1.0000 </r>
       <r>    5.9580    0.0000 </r>
       <r>    6.7846    0.0000 </r>
       <r>   11.2274    0.0000 </r>
       <r>   12.9469    0.0000 </r>
      </set>
      <set comment="kpoint 34">
       <r>   -6.2314    1.0000 </r>
       <r>   -1.4946    1.0000 </r>
       <r>    0.4825    1.0000 </r>
       <r>    1.3625    1.0000 </r>
       <r>    6.4347    0.0000 </r>
       <r>    8.0974    0.0000 </r>
       <r>   10.5747    0.0000 </r>
       <r>   11.2524    0.0000 </r>
      </set>
      <set comment="kpoint 35">
       <r>   -6.2561    1.0000 </r>
       <r>   -1.4009    1.0000 </r>
       <r>    0.4874    1.0000 </r>
       <r>    1.1223    1.0000 </r>
       <r>    7.6702    0.0000 </r>
       <r>    8.6362    0.0000 </r>
       <r>    8.9505    0.0000 </r>
       <r>   10.6181    0.0000 </r>
      </set>
     </set>
    </set>
   </array>
  </eigenvalues>
  <separator name="orbital magnetization" >
   <v name="MAGDIPOLOUT">      0.00000000      0.00000000      0.00000000</v>
  </separator>
  <dos>
   <i name="efermi">      3.73496892 </i>
   <total>
    <array>
     <dimension dim="1">gridpoints</dimension>
     <dimension dim="2">spin</dimension>
     <field>energy</field>
     <field>total</field>
     <field>integrated</field>
     <set>
      <set comment="spin 1">
       <r>    -9.1496     0.0000     0.0000 </r>
       <r>    -6.8069     0.0416     0.7916 </r>
       <r>    -4.4643     0.0000     2.0000 </r>
       <r>    -2.1216     0.0000     2.0000 </r>
       <r>     0.2210     0.0144     3.7897 </r>
       <r>     2.5636     0.1405     7.2236 </r>
       <r>     4.9063     0.0000     8.0000 </r>
       <r>     7.2489     0.0000    10.0659 </r>
       <r>     9.5916     0.0562    13.4540 </r>
       <r>    11.9342     0.0281    15.8354 </r>
       <r>    14.2769     0.0000    16.0000 </r>
      </set>
     </set>
    </array>
   </total>
   <partial>
    <array>
     <dimension dim="1">gridpoints</dimension>
     <dimension dim="2">spin</dimension>
     <dimension dim="3">ion</dimension>
     <field>energy</field>
     <field>  s  </field>
     <field>  p  </field>
     <field>  d  </field>
     <set>
      <set comment="ion 1">
       <set comment="spin 1">
        <r>    -9.1496     0.0000     0.0000     0.0000 </r>
        <r>    -6.8069     0.0014     0.0005     0.0000 </r>
        <r>    -4.4643     0.0000     0.0000     0.0000 </r>
        <r>    -2.1216     0.0000     0.0000     0.0000 </r>
        <r>     0.2210     0.0001     0.0010     0.0000 </r>
        <r>     2.5636     0.0009     0.0103     0.0000 </r>
        <r>     4.9063     0.0000     0.0000     0.0000 </r>
        <r>     7.2489     0.0000     0.0000     0.0000 </r>
        <r>     9.5916     0.0008     0.0062     0.0000 </r>
        <r>    11.9342     0.0000     0.0038     0.0000 </r>
        <r>    14.2769     0.0000     0.0000     0.0000 </r>
       </set>
      </set>
      <set comment="ion 2">
       <set comment="spin 1">
        <r>    -9.1496     0.0000     0.0000     0.0000 </r>
        <r>    -6.8069     0.0224     0.0001     0.0000 </r>
        <r>    -4.4643     0.0000     0.0000     0.0000 </r>
        <r>    -2.1216     0.0000     0.0000     0.0000 </r>
        <r>     0.2210     0.0001     0.0036     0.0000 </r>
        <r>     2.5636     0.0005     0.0497     0.0006 </r>
        <r>     4.9063     0.0000     0.0000     0.0000 </r>
        <r>     7.2489     0.0000     0.0000     0.0000 </r>
        <r>     9.5916     0.0006     0.0064     0.0032 </r>
        <r>    11.9342     0.0000     0.0042     0.0017 </r>
        <r>    14.2769     0.0000     0.0000     0.0000 </r>
       </set>
      </set>
     </set>
    </array>
   </partial>
  </dos>
  <projected>
   <eigenvalues>
    <array>
     <dimension dim="1">band</dimension>
     <dimension dim="2">kpoint</dimension>
     <dimension dim="3">spin</dimension>
     <field>eigene</field>
     <field>occ</field>
     <set>
      <set comment="spin 1">
       <set comment="kpoint 1">
        <r>   -8.0847    1.0000 </r>
        <r>    3.5722    1.0000 </r>
        <r>    3.5722    1.0000 </r>
        <r>    3.5722    1.0000 </r>
        <r>    5.3351    0.0000 </r>
        <r>    7.7953    0.0000 </r>
        <r>    7.7953    0.0000 </r>
        <r>    7.7953    0.0000 </r>
       </set>
       <set comment="kpoint 2">
        <r>   -7.9694    1.0000 </r>
        <r>    2.3629    1.0000 </r>
        <r>    3.4467    1.0000 </r>
        <r>    3.4467    1.0000 </r>
        <r>    6.0771    0.0000 </r>
        <r>    8.0181    0.0000 </r>
        <r>    8.0181    0.0000 </r>
        <r>    8.0414    0.0000 </r>
       </set>
       <set comment="kpoint 3">
        <r>   -7.6439    1.0000 </r>
        <r>    0.6528    1.0000 </r>
        <r>    3.1783    1.0000 </r>
        <r>    3.1783    1.0000 </r>
        <r>    6.1062    0.0000 </r>
        <r>    8.3734    0.0000 </r>
        <r>    8.3734    0.0000 </r>
        <r>    9.3866    0.0000 </r>
       </set>
       <set comment="kpoint 4">
        <r>   -7.1894    1.0000 </r>
        <r>   -0.8088    1.0000 </r>
        <r>    2.9306    1.0000 </r>
        <r>    2.9306    1.0000 </r>
        <r>    5.7953    0.0000 </r>
        <r>    8.3841    0.0000 </r>
        <r>    8.3841    0.0000 </r>
        <r>   10.8879    0.0000 </r>
       </set>
       <set comment="kpoint 5">
        <r>   -6.8103    1.0000 </r>
        <r>   -1.7088    1.0000 </r>
        <r>    2.7915    1.0000 </r>
        <r>    2.7915    1.0000 </r>
        <r>    5.6008    0.0000 </r>
        <r>    8.2471    0.0000 </r>
        <r>    8.2471    0.0000 </r>
        <r>   11.2511    0.0000 </r>
       </set>
       <set comment="kpoint 6">
        <r>   -7.9307    1.0000 </r>
        <r>    2.3756    1.0000 </r>
        <r>    3.1813    1.0000 </r>
        <r>    3.1813    1.0000 </r>
        <r>    6.5772    0.0000 </r>
        <r>    7.2814    0.0000 </r>
        <r>    8.4240    0.0000 </r>
        <r>    8.4240    0.0000 </r>
       </set>
       <set comment="kpoint 7">
        <r>   -7.6740    1.0000 </r>
        <r>    1.0723    1.0000 </r>
        <r>    2.8487    1.0000 </r>
        <r>    2.9153    1.0000 </r>
        <r>    6.8359    0.0000 </r>
        <r>    7.4543    0.0000 </r>
        <r>    8.9710    0.0000 </r>
        <r>    9.0839    0.0000 </r>
       </set>
       <set comment="kpoint 8">
        <r>   -7.2560    1.0000 </r>
        <r>   -0.3667    1.0000 </r>
        <r>    2.5368    1.0000 </r>
        <r>    2.6105    1.0000 </r>
        <r>    6.5414    0.0000 </r>
        <r>    7.9895    0.0000 </r>
        <r>    9.0936    0.0000 </r>
        <r>    9.5473    0.0000 </r>
       </set>
       <set comment="kpoint 9">
        <r>   -6.8307    1.0000 </r>
        <r>   -1.4278    1.0000 </r>
        <r>    2.1851    1.0000 </r>
        <r>    2.5359    1.0000 </r>
        <r>    6.3281    0.0000 </r>
        <r>    7.9933    0.0000 </r>
        <r>    8.8459    0.0000 </r>
        <r>   10.7865    0.0000 </r>
       </set>
       <set comment="kpoint 10">
        <r>   -6.6855    1.0000 </r>
        <r>   -1.7343    1.0000 </r>
        <r>    1.9794    1.0000 </r>
        <r>    2.6361    1.0000 </r>
        <r>    6.2885    0.0000 </r>
        <r>    8.0333    0.0000 </r>
        <r>    8.6239    0.0000 </r>
        <r>   11.6168    0.0000 </r>
       </set>
       <set comment="kpoint 11">
        <r>   -6.9601    1.0000 </r>
        <r>   -1.1318    1.0000 </r>
        <r>    1.9752    1.0000 </r>
        <r>    2.8828    1.0000 </r>
        <r>    6.4308    0.0000 </r>
        <r>    8.2680    0.0000 </r>
        <r>    8.5445    0.0000 </r>
        <r>   10.8940    0.0000 </r>
       </set>
       <set comment="kpoint 12">
        <r>   -7.4092    1.0000 </r>
        <r>    0.0830    1.0000 </r>
        <r>    2.2094    1.0000 </r>
        <r>    3.2022    1.0000 </r>
        <r>    6.6955    0.0000 </r>
        <r>    8.3883    0.0000 </r>
        <r>    8.4304    0.0000 </r>
        <r>    9.6422    0.0000 </r>
       </set>
       <set comment="kpoint 13">
        <r>   -7.7832    1.0000 </r>
        <r>    1.4493    1.0000 </r>
        <r>    2.7489    1.0000 </r>
        <r>    3.4507    1.0000 </r>
        <r>    6.6809    0.0000 </r>
        <r>    7.8783    0.0000 </r>
        <r>    8.0997    0.0000 </r>
        <r>    9.0078    0.0000 </r>
       </set>
       <set comment="kpoint 14">
        <r>   -7.4929    1.0000 </r>
        <r>    0.7644    1.0000 </r>
        <r>    2.4562    1.0000 </r>
        <r>    2.4562    1.0000 </r>
        <r>    6.3621    0.0000 </r>
        <r>    7.4110    0.0000 </r>
        <r>    9.8398    0.0000 </r>
        <r>    9.8398    0.0000 </r>
       </set>
       <set comment="kpoint 15">
        <r>   -7.1401    1.0000 </r>
        <r>   -0.1909    1.0000 </r>
        <r>    1.9783    1.0000 </r>
        <r>    2.1796    1.0000 </r>
        <r>    6.2703    0.0000 </r>
        <r>    7.4015    0.0000 </r>
        <r>    9.6987    0.0000 </r>
        <r>   10.3331    0.0000 </r>
       </set>
       <set comment="kpoint 16">
        <r>   -6.7308    1.0000 </r>
        <r>   -1.1045    1.0000 </r>
        <r>    1.3563    1.0000 </r>
        <r>    2.0940    1.0000 </r>
        <r>    6.2575    0.0000 </r>
        <r>    8.3579    0.0000 </r>
        <r>    9.4377    0.0000 </r>
        <r>   10.1695    0.0000 </r>
       </set>
       <set comment="kpoint 17">
        <r>   -6.4974    1.0000 </r>
        <r>   -1.5409    1.0000 </r>
        <r>    0.8987    1.0000 </r>
        <r>    2.2149    1.0000 </r>
        <r>    6.3508    0.0000 </r>
        <r>    8.9080    0.0000 </r>
        <r>    9.8206    0.0000 </r>
        <r>   10.4094    0.0000 </r>
       </set>
       <set comment="kpoint 18">
        <r>   -6.6390    1.0000 </r>
        <r>   -1.2668    1.0000 </r>
        <r>    0.7727    1.0000 </r>
        <r>    2.5142    1.0000 </r>
        <r>    6.6713    0.0000 </r>
        <r>    8.9372    0.0000 </r>
        <r>    9.5075    0.0000 </r>
        <r>   10.7680    0.0000 </r>
       </set>
       <set comment="kpoint 19">
        <r>   -7.0264    1.0000 </r>
        <r>   -0.5650    1.0000 </r>
        <r>    1.1691    1.0000 </r>
        <r>    2.9047    1.0000 </r>
        <r>    7.0600    0.0000 </r>
        <r>    8.8376    0.0000 </r>
        <r>    9.0290    0.0000 </r>
        <r>    9.4806    0.0000 </r>
       </set>
       <set comment="kpoint 20">
        <r>   -6.8686    1.0000 </r>
        <r>   -0.6504    1.0000 </r>
        <r>    1.8507    1.0000 </r>
        <r>    1.8507    1.0000 </r>
        <r>    5.5874    0.0000 </r>
        <r>    6.5526    0.0000 </r>
        <r>   11.5416    0.0000 </r>
        <r>   11.5416    0.0000 </r>
       </set>
       <set comment="kpoint 21">
        <r>   -6.5342    1.0000 </r>
        <r>   -1.2247    1.0000 </r>
        <r>    1.2975    1.0000 </r>
        <r>    1.7169    1.0000 </r>
        <r>    5.6164    0.0000 </r>
        <r>    6.6814    0.0000 </r>
        <r>   11.4535    0.0000 </r>
        <r>   11.8548    0.0000 </r>
       </set>
       <set comment="kpoint 22">
        <r>   -6.3127    1.0000 </r>
        <r>   -1.4833    1.0000 </r>
        <r>    0.5338    1.0000 </r>
        <r>    1.8042    1.0000 </r>
        <r>    5.7924    0.0000 </r>
        <r>    8.0392    0.0000 </r>
        <r>   11.1595    0.0000 </r>
        <r>   11.4795    0.0000 </r>
       </set>
       <set comment="kpoint 23">
        <r>   -6.3638    1.0000 </r>
        <r>   -1.3762    1.0000 </r>
        <r>    0.2032    1.0000 </r>
        <r>    2.0949    1.0000 </r>
        <r>    6.1645    0.0000 </r>
        <r>    9.7689    0.0000 </r>
        <r>   10.7362    0.0000 </r>
        <r>   10.9671    0.0000 </r>
       </set>
       <set comment="kpoint 24">
        <r>   -6.3248    1.0000 </r>
        <r>   -1.5910    1.0000 </r>
        <r>    1.5239    1.0000 </r>
        <r>    1.5239    1.0000 </r>
        <r>    5.1331    0.0000 </r>
        <r>    5.9383    0.0000 </r>
        <r>   13.2120    0.0000 </r>
        <r>   13.2120    0.0000 </r>
       </set>
       <set comment="kpoint 25">
        <r>   -6.2311    1.0000 </r>
        <r>   -1.6722    1.0000 </r>
        <r>    1.0575    1.0000 </r>
        <r>    1.5550    1.0000 </r>
        <r>    5.3637    0.0000 </r>
        <r>    6.4152    0.0000 </r>
        <r>   12.9984    0.0000 </r>
        <r>   13.0078    0.0000 </r>
       </set>
       <set comment="kpoint 26">
        <r>   -7.3678    1.0000 </r>
        <r>    0.2361    1.0000 </r>
        <r>    1.9770    1.0000 </r>
        <r>    2.8149    1.0000 </r>
        <r>    7.1414    0.0000 </r>
        <r>    7.5242    0.0000 </r>
        <r>    8.9822    0.0000 </r>
        <r>    9.5641    0.0000 </r>
       </set>
       <set comment="kpoint 27">
        <r>   -6.9465    1.0000 </r>
        <r>   -0.7767    1.0000 </r>
        <r>    1.4272    1.0000 </r>
        <r>    2.5065    1.0000 </r>
        <r>    7.1058    0.0000 </r>
        <r>    7.9486    0.0000 </r>
        <r>    9.0741    0.0000 </r>
        <r>    9.9255    0.0000 </r>
       </set>
       <set comment="kpoint 28">
        <r>   -6.6032    1.0000 </r>
        <r>   -1.4966    1.0000 </r>
        <r>    1.2113    1.0000 </r>
        <r>    2.2648    1.0000 </r>
        <r>    7.0082    0.0000 </r>
        <r>    7.7989    0.0000 </r>
        <r>    9.7272    0.0000 </r>
        <r>   10.6814    0.0000 </r>
       </set>
       <set comment="kpoint 29">
        <r>   -6.7878    1.0000 </r>
        <r>   -0.8159    1.0000 </r>
        <r>    1.3650    1.0000 </r>
        <r>    1.9046    1.0000 </r>
        <r>    6.4049    0.0000 </r>
        <r>    7.2740    0.0000 </r>
        <r>    9.6485    0.0000 </r>
        <r>   11.4398    0.0000 </r>
       </set>
       <set comment="kpoint 30">
        <r>   -6.4566    1.0000 </r>
        <r>   -1.3154    1.0000 </r>
        <r>    0.7807    1.0000 </r>
        <r>    1.6711    1.0000 </r>
        <r>    6.6610    0.0000 </r>
        <r>    8.2595    0.0000 </r>
        <r>    9.2762    0.0000 </r>
        <r>   11.6795    0.0000 </r>
       </set>
       <set comment="kpoint 31">
        <r>   -6.3636    1.0000 </r>
        <r>   -1.4212    1.0000 </r>
        <r>    0.4307    1.0000 </r>
        <r>    1.7605    1.0000 </r>
        <r>    6.9181    0.0000 </r>
        <r>    8.7335    0.0000 </r>
        <r>   10.1119    0.0000 </r>
        <r>   10.9275    0.0000 </r>
       </set>
       <set comment="kpoint 32">
        <r>   -6.5847    1.0000 </r>
        <r>   -1.1410    1.0000 </r>
        <r>    0.5968    1.0000 </r>
        <r>    2.1055    1.0000 </r>
        <r>    7.3319    0.0000 </r>
        <r>    8.3734    0.0000 </r>
        <r>    9.1263    0.0000 </r>
        <r>   11.1329    0.0000 </r>
       </set>
       <set comment="kpoint 33">
        <r>   -6.3013    1.0000 </r>
        <r>   -1.5153    1.0000 </r>
        <r>    1.0864    1.0000 </r>
        <r>    1.2941    1.0000 </r>
        <r>    5.9580    0.0000 </r>
        <r>    6.7846    0.0000 </r>
        <r>   11.2274    0.0000 </r>
        <r>   12.9469    0.0000 </r>
       </set>
       <set comment="kpoint 34">
        <r>   -6.2314    1.0000 </r>
        <r>   -1.4946    1.0000 </r>
        <r>    0.4825    1.0000 </r>
        <r>    1.3625    1.0000 </r>
        <r>    6.4347    0.0000 </r>
        <r>    8.0974    0.0000 </r>
        <r>   10.5747    0.0000 </r>
        <r>   11.2524    0.0000 </r>
       </set>
       <set comment="kpoint 35">
        <r>   -6.2561    1.0000 </r>
        <r>   -1.4009    1.0000 </r>
        <r>    0.4874    1.0000 </r>
        <r>    1.1223    1.0000 </r>
        <r>    7.6702    0.0000 </r>
        <r>    8.6362    0.0000 </r>
        <r>    8.9505    0.0000 </r>
        <r>   10.6181    0.0000 </r>
       </set>
      </set>
     </set>
    </array>
   </eigenvalues>
   <array>
    <dimension dim="1">ion</dimension>
    <dimension dim="2">band</dimension>
    <dimension dim="3">kpoint</dimension>
    <dimension dim="4">spin</dimension>
    <field>  s  </field>
    <field>  p  </field>
    <field>  d  </field>
    <set>
     <set comment="spin1">
      <set comment="kpoint 1">
       <set comment="band 1">
        <r>  0.0731  0.0000  0.0000 </r>
        <r>  0.4479  0.0000  0.0000 </r>
       </set>
       <set comment="band 2">
        <r>  0.0000  0.0362  0.0000 </r>
        <r>  0.0000  0.4426  0.0044 </r>
       </set>
       <set comment="band 3">
        <r>  0.0000  0.0362  0.0000 </r>
        <r>  0.0000  0.4426  0.0044 </r>
       </set>
       <set comment="band 4">
        <r>  0.0000  0.0362  0.0000 </r>
        <r>  0.0000  0.4426  0.0044 </r>
       </set>
       <set comment="band 5">
        <r>  0.2133  0.0000  0.0000 </r>
        <r>  0.3424  0.0000  0.0000 </r>
       </set>
       <set comment="band 6">
        <r>  0.0000  0.2197  0.0000 </r>
        <r>  0.0000  0.0212  0.0641 </r>
       </set>
       <set comment="band 7">
        <r>  0.0000  0.2197  0.0000 </r>
        <r>  0.0000  0.0212  0.0641 </r>
       </set>
       <set comment="band 8">
        <r>  0.0000  0.2197  0.0000 </r>
        <r>  0.0000  0.0212  0.0641 </r>
       </set>
      </set>
      <set comment="kpoint 2">
       <set comment="band 1">
        <r>  0.0704  0.0011  0.0000 </r>
        <r>  0.4532  0.0007  0.0000 </r>
       </set>
       <set comment="band 2">
        <r>  0.0567  0.0335  0.0000 </r>
        <r>  0.0787  0.2948  0.0042 </r>
       </set>
       <set comment="band 3">
        <r>  0.0000  0.0439  0.0000 </r>
        <r>  0.0000  0.4289  0.0047 </r>
       </set>
       <set comment="band 4">
        <r>  0.0000  0.0439  0.0000 </r>
        <r>  0.0000  0.4289  0.0047 </r>
       </set>
       <set comment="band 5">
        <r>  0.1614  0.0328  0.0000 </r>
        <r>  0.2339  0.0826  0.0067 </r>
       </set>
       <set comment="band 6">
        <r>  0.0000  0.2126  0.0000 </r>
        <r>  0.0000  0.0359  0.0630 </r>
       </set>
       <set comment="band 7">
        <r>  0.0000  0.2126  0.0000 </r>
        <r>  0.0000  0.0359  0.0630 </r>
       </set>
       <set comment="band 8">
        <r>  0.0324  0.1510  0.0000 </r>
        <r>  0.0214  0.0893  0.0523 </r>
       </set>
      </set>
      <set comment="kpoint 3">
       <set comment="band 1">
        <r>  0.0621  0.0042  0.0000 </r>
        <r>  0.4708  0.0023  0.0001 </r>
       </set>
       <set comment="band 2">
        <r>  0.0839  0.0343  0.0000 </r>
        <r>  0.0851  0.2254  0.0035 </r>
       </set>
       <set comment="band 3">
        <r>  0.0000  0.0576  0.0000 </r>
        <r>  0.0000  0.4063  0.0047 </r>
       </set>
       <set comment="band 4">
        <r>  0.0000  0.0576  0.0000 </r>
        <r>  0.0000  0.4063  0.0047 </r>
       </set>
       <set comment="band 5">
        <r>  0.1557  0.0594  0.0000 </r>
        <r>  0.1520  0.0354  0.0242 </r>
       </set>
       <set comment="band 6">
        <r>  0.0000  0.1883  0.0000 </r>
        <r>  0.0000  0.0526  0.0620 </r>
       </set>
       <set comment="band 7">
        <r>  0.0000  0.1883  0.0000 </r>
        <r>  0.0000  0.0526  0.0620 </r>
       </set>
       <set comment="band 8">
        <r>  0.0618  0.0691  0.0000 </r>
        <r>  0.0649  0.2149  0.0265 </r>
       </set>
      </set>
      <set comment="kpoint 4">
       <set comment="band 1">
        <r>  0.0481  0.0086  0.0000 </r>
        <r>  0.5045  0.0028  0.0002 </r>
       </set>
       <set comment="band 2">
        <r>  0.1060  0.0321  0.0000 </r>
        <r>  0.0579  0.1934  0.0024 </r>
       </set>
       <set comment="band 3">
        <r>  0.0000  0.0679  0.0000 </r>
        <r>  0.0000  0.3917  0.0040 </r>
       </set>
       <set comment="band 4">
        <r>  0.0000  0.0679  0.0000 </r>
        <r>  0.0000  0.3917  0.0040 </r>
       </set>
       <set comment="band 5">
        <r>  0.1747  0.0415  0.0000 </r>
        <r>  0.1363  0.0220  0.0286 </r>
       </set>
       <set comment="band 6">
        <r>  0.0000  0.1483  0.0000 </r>
        <r>  0.0000  0.0460  0.0641 </r>
       </set>
       <set comment="band 7">
        <r>  0.0000  0.1483  0.0000 </r>
        <r>  0.0000  0.0460  0.0641 </r>
       </set>
       <set comment="band 8">
        <r>  0.0250  0.0460  0.0000 </r>
        <r>  0.0342  0.2486  0.0095 </r>
       </set>
      </set>
      <set comment="kpoint 5">
       <set comment="band 1">
        <r>  0.0332  0.0125  0.0000 </r>
        <r>  0.5453  0.0010  0.0004 </r>
       </set>
       <set comment="band 2">
        <r>  0.1246  0.0291  0.0000 </r>
        <r>  0.0192  0.1816  0.0017 </r>
       </set>
       <set comment="band 3">
        <r>  0.0000  0.0730  0.0000 </r>
        <r>  0.0000  0.3855  0.0034 </r>
       </set>
       <set comment="band 4">
        <r>  0.0000  0.0730  0.0000 </r>
        <r>  0.0000  0.3855  0.0034 </r>
       </set>
       <set comment="band 5">
        <r>  0.1866  0.0286  0.0000 </r>
        <r>  0.1351  0.0186  0.0296 </r>
       </set>
       <set comment="band 6">
        <r>  0.0000  0.1273  0.0000 </r>
        <r>  0.0000  0.0378  0.0657 </r>
       </set>
       <set comment="band 7">
        <r>  0.0000  0.1273  0.0000 </r>
        <r>  0.0000  0.0378  0.0657 </r>
       </set>
       <set comment="band 8">
        <r>  0.0009  0.0198  0.0000 </r>
        <r>  0.0060  0.1455  0.0022 </r>
       </set>
      </set>
      <set comment="kpoint 6">
       <set comment="band 1">
        <r>  0.0694  0.0015  0.0000 </r>
        <r>  0.4550  0.0010  0.0000 </r>
       </set>
       <set comment="band 2">
        <r>  0.0746  0.0224  0.0000 </r>
        <r>  0.1024  0.2845  0.0037 </r>
       </set>
       <set comment="band 3">
        <r>  0.0000  0.0536  0.0000 </r>
        <r>  0.0000  0.4007  0.0053 </r>
       </set>
       <set comment="band 4">
        <r>  0.0000  0.0536  0.0000 </r>
        <r>  0.0000  0.4007  0.0053 </r>
       </set>
       <set comment="band 5">
        <r>  0.1557  0.0123  0.0000 </r>
        <r>  0.2172  0.1694  0.0005 </r>
       </set>
       <set comment="band 6">
        <r>  0.0272  0.1798  0.0000 </r>
        <r>  0.0081  0.0122  0.0568 </r>
       </set>
       <set comment="band 7">
        <r>  0.0000  0.2019  0.0000 </r>
        <r>  0.0000  0.0658  0.0635 </r>
       </set>
       <set comment="band 8">
        <r>  0.0000  0.2019  0.0000 </r>
        <r>  0.0000  0.0658  0.0635 </r>
       </set>
      </set>
      <set comment="kpoint 7">
       <set comment="band 1">
        <r>  0.0629  0.0040  0.0000 </r>
        <r>  0.4685  0.0023  0.0000 </r>
       </set>
       <set comment="band 2">
        <r>  0.0903  0.0278  0.0000 </r>
        <r>  0.1005  0.2343  0.0036 </r>
       </set>
       <set comment="band 3">
        <r>  0.0000  0.0652  0.0000 </r>
        <r>  0.0000  0.3763  0.0050 </r>
       </set>
       <set comment="band 4">
        <r>  0.0121  0.0577  0.0000 </r>
        <r>  0.0090  0.3692  0.0056 </r>
       </set>
       <set comment="band 5">
        <r>  0.1183  0.0669  0.0000 </r>
        <r>  0.0951  0.1074  0.0278 </r>
       </set>
       <set comment="band 6">
        <r>  0.0569  0.1313  0.0000 </r>
        <r>  0.0701  0.0743  0.0363 </r>
       </set>
       <set comment="band 7">
        <r>  0.0000  0.1844  0.0000 </r>
        <r>  0.0000  0.0890  0.0634 </r>
       </set>
       <set comment="band 8">
        <r>  0.0137  0.1234  0.0000 </r>
        <r>  0.0111  0.1145  0.0571 </r>
       </set>
      </set>
      <set comment="kpoint 8">
       <set comment="band 1">
        <r>  0.0503  0.0081  0.0000 </r>
        <r>  0.4974  0.0032  0.0001 </r>
       </set>
       <set comment="band 2">
        <r>  0.1077  0.0298  0.0000 </r>
        <r>  0.0736  0.1999  0.0029 </r>
       </set>
       <set comment="band 3">
        <r>  0.0240  0.0610  0.0000 </r>
        <r>  0.0146  0.3368  0.0057 </r>
       </set>
       <set comment="band 4">
        <r>  0.0000  0.0732  0.0000 </r>
        <r>  0.0000  0.3649  0.0043 </r>
       </set>
       <set comment="band 5">
        <r>  0.1273  0.0539  0.0000 </r>
        <r>  0.0909  0.0931  0.0300 </r>
       </set>
       <set comment="band 6">
        <r>  0.0310  0.1377  0.0000 </r>
        <r>  0.0311  0.0597  0.0469 </r>
       </set>
       <set comment="band 7">
        <r>  0.0000  0.1501  0.0000 </r>
        <r>  0.0000  0.0808  0.0652 </r>
       </set>
       <set comment="band 8">
        <r>  0.0228  0.0530  0.0000 </r>
        <r>  0.0175  0.1188  0.0559 </r>
       </set>
      </set>
      <set comment="kpoint 9">
       <set comment="band 1">
        <r>  0.0341  0.0125  0.0000 </r>
        <r>  0.5397  0.0020  0.0003 </r>
       </set>
       <set comment="band 2">
        <r>  0.1272  0.0279  0.0000 </r>
        <r>  0.0315  0.1837  0.0023 </r>
       </set>
       <set comment="band 3">
        <r>  0.0297  0.0631  0.0000 </r>
        <r>  0.0173  0.3164  0.0052 </r>
       </set>
       <set comment="band 4">
        <r>  0.0000  0.0770  0.0000 </r>
        <r>  0.0000  0.3645  0.0036 </r>
       </set>
       <set comment="band 5">
        <r>  0.1417  0.0419  0.0000 </r>
        <r>  0.0958  0.0847  0.0301 </r>
       </set>
       <set comment="band 6">
        <r>  0.0139  0.1069  0.0000 </r>
        <r>  0.0151  0.0511  0.0543 </r>
       </set>
       <set comment="band 7">
        <r>  0.0000  0.1259  0.0000 </r>
        <r>  0.0000  0.0626  0.0664 </r>
       </set>
       <set comment="band 8">
        <r>  0.0175  0.0694  0.0000 </r>
        <r>  0.0115  0.1641  0.0443 </r>
       </set>
      </set>
      <set comment="kpoint 10">
       <set comment="band 1">
        <r>  0.0274  0.0141  0.0000 </r>
        <r>  0.5585  0.0008  0.0003 </r>
       </set>
       <set comment="band 2">
        <r>  0.1347  0.0269  0.0000 </r>
        <r>  0.0125  0.1806  0.0021 </r>
       </set>
       <set comment="band 3">
        <r>  0.0299  0.0647  0.0000 </r>
        <r>  0.0169  0.3069  0.0048 </r>
       </set>
       <set comment="band 4">
        <r>  0.0000  0.0764  0.0000 </r>
        <r>  0.0000  0.3730  0.0035 </r>
       </set>
       <set comment="band 5">
        <r>  0.1505  0.0391  0.0000 </r>
        <r>  0.1012  0.0797  0.0298 </r>
       </set>
       <set comment="band 6">
        <r>  0.0071  0.0980  0.0000 </r>
        <r>  0.0105  0.0538  0.0559 </r>
       </set>
       <set comment="band 7">
        <r>  0.0000  0.1228  0.0000 </r>
        <r>  0.0000  0.0515  0.0655 </r>
       </set>
       <set comment="band 8">
        <r>  0.0062  0.0504  0.0000 </r>
        <r>  0.0006  0.2150  0.0191 </r>
       </set>
      </set>
      <set comment="kpoint 11">
       <set comment="band 1">
        <r>  0.0396  0.0111  0.0000 </r>
        <r>  0.5252  0.0026  0.0002 </r>
       </set>
       <set comment="band 2">
        <r>  0.1206  0.0290  0.0000 </r>
        <r>  0.0459  0.1871  0.0025 </r>
       </set>
       <set comment="band 3">
        <r>  0.0259  0.0662  0.0000 </r>
        <r>  0.0134  0.3070  0.0050 </r>
       </set>
       <set comment="band 4">
        <r>  0.0000  0.0709  0.0000 </r>
        <r>  0.0000  0.3892  0.0040 </r>
       </set>
       <set comment="band 5">
        <r>  0.1503  0.0467  0.0000 </r>
        <r>  0.1066  0.0788  0.0288 </r>
       </set>
       <set comment="band 6">
        <r>  0.0042  0.1060  0.0000 </r>
        <r>  0.0093  0.0610  0.0565 </r>
       </set>
       <set comment="band 7">
        <r>  0.0000  0.1418  0.0000 </r>
        <r>  0.0000  0.0478  0.0626 </r>
       </set>
       <set comment="band 8">
        <r>  0.0311  0.0576  0.0000 </r>
        <r>  0.0219  0.2306  0.0306 </r>
       </set>
      </set>
      <set comment="kpoint 12">
       <set comment="band 1">
        <r>  0.0553  0.0065  0.0000 </r>
        <r>  0.4859  0.0030  0.0001 </r>
       </set>
       <set comment="band 2">
        <r>  0.1006  0.0304  0.0000 </r>
        <r>  0.0851  0.2087  0.0032 </r>
       </set>
       <set comment="band 3">
        <r>  0.0178  0.0671  0.0000 </r>
        <r>  0.0065  0.3197  0.0057 </r>
       </set>
       <set comment="band 4">
        <r>  0.0000  0.0602  0.0000 </r>
        <r>  0.0000  0.4121  0.0045 </r>
       </set>
       <set comment="band 5">
        <r>  0.1426  0.0619  0.0000 </r>
        <r>  0.1205  0.0841  0.0253 </r>
       </set>
       <set comment="band 6">
        <r>  0.0178  0.1273  0.0000 </r>
        <r>  0.0188  0.0820  0.0531 </r>
       </set>
       <set comment="band 7">
        <r>  0.0000  0.1857  0.0000 </r>
        <r>  0.0000  0.0461  0.0588 </r>
       </set>
       <set comment="band 8">
        <r>  0.0410  0.0616  0.0000 </r>
        <r>  0.0324  0.1899  0.0402 </r>
       </set>
      </set>
      <set comment="kpoint 13">
       <set comment="band 1">
        <r>  0.0658  0.0029  0.0000 </r>
        <r>  0.4626  0.0018  0.0000 </r>
       </set>
       <set comment="band 2">
        <r>  0.0806  0.0296  0.0000 </r>
        <r>  0.0994  0.2480  0.0036 </r>
       </set>
       <set comment="band 3">
        <r>  0.0069  0.0629  0.0000 </r>
        <r>  0.0002  0.3575  0.0062 </r>
       </set>
       <set comment="band 4">
        <r>  0.0000  0.0473  0.0000 </r>
        <r>  0.0000  0.4330  0.0045 </r>
       </set>
       <set comment="band 5">
        <r>  0.1457  0.0552  0.0000 </r>
        <r>  0.1794  0.1055  0.0123 </r>
       </set>
       <set comment="band 6">
        <r>  0.0375  0.1317  0.0000 </r>
        <r>  0.0131  0.0829  0.0531 </r>
       </set>
       <set comment="band 7">
        <r>  0.0000  0.2121  0.0000 </r>
        <r>  0.0000  0.0320  0.0605 </r>
       </set>
       <set comment="band 8">
        <r>  0.0148  0.1455  0.0000 </r>
        <r>  0.0209  0.1352  0.0525 </r>
       </set>
      </set>
      <set comment="kpoint 14">
       <set comment="band 1">
        <r>  0.0576  0.0059  0.0000 </r>
        <r>  0.4789  0.0032  0.0001 </r>
       </set>
       <set comment="band 2">
        <r>  0.1187  0.0153  0.0000 </r>
        <r>  0.1165  0.2192  0.0036 </r>
       </set>
       <set comment="band 3">
        <r>  0.0000  0.0741  0.0000 </r>
        <r>  0.0000  0.3516  0.0046 </r>
       </set>
       <set comment="band 4">
        <r>  0.0000  0.0741  0.0000 </r>
        <r>  0.0000  0.3516  0.0046 </r>
       </set>
       <set comment="band 5">
        <r>  0.0653  0.1178  0.0000 </r>
        <r>  0.0121  0.0141  0.0478 </r>
       </set>
       <set comment="band 6">
        <r>  0.1020  0.0239  0.0000 </r>
        <r>  0.0935  0.1521  0.0230 </r>
       </set>
       <set comment="band 7">
        <r>  0.0000  0.1790  0.0000 </r>
        <r>  0.0000  0.1220  0.0635 </r>
       </set>
       <set comment="band 8">
        <r>  0.0000  0.1790  0.0000 </r>
        <r>  0.0000  0.1220  0.0635 </r>
       </set>
      </set>
      <set comment="kpoint 15">
       <set comment="band 1">
        <r>  0.0461  0.0097  0.0000 </r>
        <r>  0.5045  0.0039  0.0001 </r>
       </set>
       <set comment="band 2">
        <r>  0.1341  0.0169  0.0000 </r>
        <r>  0.0924  0.1991  0.0034 </r>
       </set>
       <set comment="band 3">
        <r>  0.0137  0.0734  0.0000 </r>
        <r>  0.0048  0.3144  0.0048 </r>
       </set>
       <set comment="band 4">
        <r>  0.0000  0.0802  0.0000 </r>
        <r>  0.0000  0.3395  0.0037 </r>
       </set>
       <set comment="band 5">
        <r>  0.0541  0.0943  0.0000 </r>
        <r>  0.0247  0.0336  0.0425 </r>
       </set>
       <set comment="band 6">
        <r>  0.0971  0.0232  0.0000 </r>
        <r>  0.0461  0.1215  0.0368 </r>
       </set>
       <set comment="band 7">
        <r>  0.0212  0.1110  0.0000 </r>
        <r>  0.0398  0.1035  0.0550 </r>
       </set>
       <set comment="band 8">
        <r>  0.0000  0.1556  0.0000 </r>
        <r>  0.0000  0.1237  0.0648 </r>
       </set>
      </set>
      <set comment="kpoint 16">
       <set comment="band 1">
        <r>  0.0294  0.0142  0.0000 </r>
        <r>  0.5455  0.0029  0.0002 </r>
       </set>
       <set comment="band 2">
        <r>  0.1513  0.0187  0.0000 </r>
        <r>  0.0473  0.1846  0.0033 </r>
       </set>
       <set comment="band 3">
        <r>  0.0284  0.0668  0.0000 </r>
        <r>  0.0112  0.2773  0.0046 </r>
       </set>
       <set comment="band 4">
        <r>  0.0000  0.0831  0.0000 </r>
        <r>  0.0000  0.3380  0.0031 </r>
       </set>
       <set comment="band 5">
        <r>  0.0629  0.0624  0.0000 </r>
        <r>  0.0378  0.0446  0.0398 </r>
       </set>
       <set comment="band 6">
        <r>  0.0923  0.0257  0.0000 </r>
        <r>  0.0201  0.1775  0.0401 </r>
       </set>
       <set comment="band 7">
        <r>  0.0153  0.1208  0.0000 </r>
        <r>  0.0501  0.0632  0.0536 </r>
       </set>
       <set comment="band 8">
        <r>  0.0000  0.1253  0.0000 </r>
        <r>  0.0000  0.1010  0.0671 </r>
       </set>
      </set>
      <set comment="kpoint 17">
       <set comment="band 1">
        <r>  0.0178  0.0169  0.0000 </r>
        <r>  0.5771  0.0010  0.0002 </r>
       </set>
       <set comment="band 2">
        <r>  0.1637  0.0192  0.0000 </r>
        <r>  0.0123  0.1792  0.0035 </r>
       </set>
       <set comment="band 3">
        <r>  0.0326  0.0632  0.0000 </r>
        <r>  0.0140  0.2600  0.0037 </r>
       </set>
       <set comment="band 4">
        <r>  0.0000  0.0828  0.0000 </r>
        <r>  0.0000  0.3456  0.0032 </r>
       </set>
       <set comment="band 5">
        <r>  0.0764  0.0530  0.0000 </r>
        <r>  0.0434  0.0457  0.0395 </r>
       </set>
       <set comment="band 6">
        <r>  0.0659  0.0481  0.0000 </r>
        <r>  0.0393  0.1776  0.0395 </r>
       </set>
       <set comment="band 7">
        <r>  0.0000  0.1175  0.0000 </r>
        <r>  0.0000  0.0879  0.0654 </r>
       </set>
       <set comment="band 8">
        <r>  0.0264  0.0964  0.0000 </r>
        <r>  0.0188  0.1112  0.0552 </r>
       </set>
      </set>
      <set comment="kpoint 18">
       <set comment="band 1">
        <r>  0.0254  0.0150  0.0000 </r>
        <r>  0.5583  0.0021  0.0002 </r>
       </set>
       <set comment="band 2">
        <r>  0.1560  0.0208  0.0000 </r>
        <r>  0.0324  0.1803  0.0038 </r>
       </set>
       <set comment="band 3">
        <r>  0.0287  0.0647  0.0000 </r>
        <r>  0.0091  0.2578  0.0034 </r>
       </set>
       <set comment="band 4">
        <r>  0.0000  0.0788  0.0000 </r>
        <r>  0.0000  0.3625  0.0038 </r>
       </set>
       <set comment="band 5">
        <r>  0.0908  0.0568  0.0000 </r>
        <r>  0.0507  0.0515  0.0389 </r>
       </set>
       <set comment="band 6">
        <r>  0.0396  0.0689  0.0000 </r>
        <r>  0.0461  0.1425  0.0392 </r>
       </set>
       <set comment="band 7">
        <r>  0.0000  0.1351  0.0000 </r>
        <r>  0.0000  0.0858  0.0593 </r>
       </set>
       <set comment="band 8">
        <r>  0.0606  0.0457  0.0000 </r>
        <r>  0.0161  0.2431  0.0465 </r>
       </set>
      </set>
      <set comment="kpoint 19">
       <set comment="band 1">
        <r>  0.0422  0.0106  0.0000 </r>
        <r>  0.5164  0.0034  0.0001 </r>
       </set>
       <set comment="band 2">
        <r>  0.1315  0.0236  0.0000 </r>
        <r>  0.0747  0.1907  0.0036 </r>
       </set>
       <set comment="band 3">
        <r>  0.0237  0.0688  0.0000 </r>
        <r>  0.0014  0.2718  0.0046 </r>
       </set>
       <set comment="band 4">
        <r>  0.0000  0.0705  0.0000 </r>
        <r>  0.0000  0.3882  0.0044 </r>
       </set>
       <set comment="band 5">
        <r>  0.1152  0.0690  0.0000 </r>
        <r>  0.0714  0.0692  0.0350 </r>
       </set>
       <set comment="band 6">
        <r>  0.0067  0.1018  0.0000 </r>
        <r>  0.0569  0.1049  0.0379 </r>
       </set>
       <set comment="band 7">
        <r>  0.0000  0.1727  0.0000 </r>
        <r>  0.0000  0.0747  0.0543 </r>
       </set>
       <set comment="band 8">
        <r>  0.0741  0.0326  0.0000 </r>
        <r>  0.0133  0.2057  0.0480 </r>
       </set>
      </set>
      <set comment="kpoint 20">
       <set comment="band 1">
        <r>  0.0352  0.0131  0.0000 </r>
        <r>  0.5276  0.0041  0.0001 </r>
       </set>
       <set comment="band 2">
        <r>  0.1597  0.0086  0.0000 </r>
        <r>  0.0791  0.1906  0.0034 </r>
       </set>
       <set comment="band 3">
        <r>  0.0000  0.0851  0.0000 </r>
        <r>  0.0000  0.3255  0.0027 </r>
       </set>
       <set comment="band 4">
        <r>  0.0000  0.0851  0.0000 </r>
        <r>  0.0000  0.3255  0.0027 </r>
       </set>
       <set comment="band 5">
        <r>  0.0437  0.0890  0.0000 </r>
        <r>  0.0316  0.0053  0.0401 </r>
       </set>
       <set comment="band 6">
        <r>  0.1026  0.0061  0.0000 </r>
        <r>  0.0230  0.0783  0.0454 </r>
       </set>
       <set comment="band 7">
        <r>  0.0000  0.1628  0.0000 </r>
        <r>  0.0000  0.1611  0.0591 </r>
       </set>
       <set comment="band 8">
        <r>  0.0000  0.1628  0.0000 </r>
        <r>  0.0000  0.1611  0.0591 </r>
       </set>
      </set>
      <set comment="kpoint 21">
       <set comment="band 1">
        <r>  0.0190  0.0174  0.0000 </r>
        <r>  0.5655  0.0027  0.0001 </r>
       </set>
       <set comment="band 2">
        <r>  0.1826  0.0059  0.0000 </r>
        <r>  0.0426  0.1828  0.0036 </r>
       </set>
       <set comment="band 3">
        <r>  0.0073  0.0815  0.0000 </r>
        <r>  0.0007  0.2888  0.0031 </r>
       </set>
       <set comment="band 4">
        <r>  0.0000  0.0876  0.0000 </r>
        <r>  0.0000  0.3215  0.0022 </r>
       </set>
       <set comment="band 5">
        <r>  0.0299  0.0708  0.0000 </r>
        <r>  0.0392  0.0210  0.0372 </r>
       </set>
       <set comment="band 6">
        <r>  0.1069  0.0166  0.0000 </r>
        <r>  0.0109  0.0895  0.0487 </r>
       </set>
       <set comment="band 7">
        <r>  0.0299  0.1185  0.0000 </r>
        <r>  0.0385  0.1644  0.0435 </r>
       </set>
       <set comment="band 8">
        <r>  0.0000  0.1355  0.0000 </r>
        <r>  0.0000  0.1484  0.0601 </r>
       </set>
      </set>
      <set comment="kpoint 22">
       <set comment="band 1">
        <r>  0.0064  0.0202  0.0000 </r>
        <r>  0.5984  0.0007  0.0001 </r>
       </set>
       <set comment="band 2">
        <r>  0.2059  0.0045  0.0000 </r>
        <r>  0.0095  0.1778  0.0047 </r>
       </set>
       <set comment="band 3">
        <r>  0.0070  0.0750  0.0000 </r>
        <r>  0.0013  0.2552  0.0023 </r>
       </set>
       <set comment="band 4">
        <r>  0.0000  0.0875  0.0000 </r>
        <r>  0.0000  0.3259  0.0023 </r>
       </set>
       <set comment="band 5">
        <r>  0.0516  0.0505  0.0000 </r>
        <r>  0.0367  0.0299  0.0391 </r>
       </set>
       <set comment="band 6">
        <r>  0.0763  0.0334  0.0000 </r>
        <r>  0.0068  0.1391  0.0501 </r>
       </set>
       <set comment="band 7">
        <r>  0.0324  0.1194  0.0000 </r>
        <r>  0.0507  0.1395  0.0359 </r>
       </set>
       <set comment="band 8">
        <r>  0.0000  0.1208  0.0000 </r>
        <r>  0.0000  0.1360  0.0589 </r>
       </set>
      </set>
      <set comment="kpoint 23">
       <set comment="band 1">
        <r>  0.0102  0.0189  0.0000 </r>
        <r>  0.5927  0.0008  0.0001 </r>
       </set>
       <set comment="band 2">
        <r>  0.2057  0.0079  0.0000 </r>
        <r>  0.0126  0.1746  0.0055 </r>
       </set>
       <set comment="band 3">
        <r>  0.0038  0.0713  0.0000 </r>
        <r>  0.0014  0.2476  0.0014 </r>
       </set>
       <set comment="band 4">
        <r>  0.0000  0.0847  0.0000 </r>
        <r>  0.0000  0.3392  0.0031 </r>
       </set>
       <set comment="band 5">
        <r>  0.0658  0.0499  0.0000 </r>
        <r>  0.0373  0.0356  0.0402 </r>
       </set>
       <set comment="band 6">
        <r>  0.0660  0.0022  0.0000 </r>
        <r>  0.0030  0.2485  0.0482 </r>
       </set>
       <set comment="band 7">
        <r>  0.0000  0.1327  0.0000 </r>
        <r>  0.0000  0.1335  0.0528 </r>
       </set>
       <set comment="band 8">
        <r>  0.0340  0.1259  0.0000 </r>
        <r>  0.0527  0.1282  0.0338 </r>
       </set>
      </set>
      <set comment="kpoint 24">
       <set comment="band 1">
        <r>  0.0061  0.0209  0.0000 </r>
        <r>  0.5941  0.0011  0.0002 </r>
       </set>
       <set comment="band 2">
        <r>  0.1984  0.0014  0.0000 </r>
        <r>  0.0144  0.1814  0.0033 </r>
       </set>
       <set comment="band 3">
        <r>  0.0000  0.0898  0.0000 </r>
        <r>  0.0000  0.3148  0.0015 </r>
       </set>
       <set comment="band 4">
        <r>  0.0000  0.0898  0.0000 </r>
        <r>  0.0000  0.3148  0.0015 </r>
       </set>
       <set comment="band 5">
        <r>  0.0063  0.0739  0.0000 </r>
        <r>  0.0506  0.0005  0.0345 </r>
       </set>
       <set comment="band 6">
        <r>  0.1391  0.0004  0.0000 </r>
        <r>  0.0026  0.0628  0.0514 </r>
       </set>
       <set comment="band 7">
        <r>  0.0000  0.1562  0.0000 </r>
        <r>  0.0000  0.2148  0.0284 </r>
       </set>
       <set comment="band 8">
        <r>  0.0000  0.1562  0.0000 </r>
        <r>  0.0000  0.2148  0.0284 </r>
       </set>
      </set>
      <set comment="kpoint 25">
       <set comment="band 1">
        <r>  0.0001  0.0222  0.0000 </r>
        <r>  0.6095  0.0000  0.0001 </r>
       </set>
       <set comment="band 2">
        <r>  0.2093  0.0003  0.0000 </r>
        <r>  0.0001  0.1801  0.0038 </r>
       </set>
       <set comment="band 3">
        <r>  0.0041  0.0837  0.0000 </r>
        <r>  0.0004  0.2809  0.0024 </r>
       </set>
       <set comment="band 4">
        <r>  0.0000  0.0898  0.0000 </r>
        <r>  0.0000  0.3162  0.0016 </r>
       </set>
       <set comment="band 5">
        <r>  0.0192  0.0613  0.0000 </r>
        <r>  0.0457  0.0182  0.0354 </r>
       </set>
       <set comment="band 6">
        <r>  0.1170  0.0178  0.0000 </r>
        <r>  0.0043  0.0845  0.0505 </r>
       </set>
       <set comment="band 7">
        <r>  0.0000  0.1412  0.0000 </r>
        <r>  0.0000  0.2068  0.0293 </r>
       </set>
       <set comment="band 8">
        <r>  0.0064  0.1615  0.0000 </r>
        <r>  0.0299  0.1979  0.0030 </r>
       </set>
      </set>
      <set comment="kpoint 26">
       <set comment="band 1">
        <r>  0.0539  0.0071  0.0000 </r>
        <r>  0.4880  0.0034  0.0001 </r>
       </set>
       <set comment="band 2">
        <r>  0.1134  0.0234  0.0000 </r>
        <r>  0.0988  0.2091  0.0034 </r>
       </set>
       <set comment="band 3">
        <r>  0.0137  0.0721  0.0000 </r>
        <r>  0.0006  0.3108  0.0055 </r>
       </set>
       <set comment="band 4">
        <r>  0.0049  0.0665  0.0000 </r>
        <r>  0.0041  0.3730  0.0049 </r>
       </set>
       <set comment="band 5">
        <r>  0.0655  0.0999  0.0000 </r>
        <r>  0.0048  0.0778  0.0463 </r>
       </set>
       <set comment="band 6">
        <r>  0.1077  0.0731  0.0000 </r>
        <r>  0.1260  0.1284  0.0190 </r>
       </set>
       <set comment="band 7">
        <r>  0.0017  0.0827  0.0000 </r>
        <r>  0.0004  0.0669  0.0668 </r>
       </set>
       <set comment="band 8">
        <r>  0.0051  0.1659  0.0000 </r>
        <r>  0.0055  0.1101  0.0590 </r>
       </set>
      </set>
      <set comment="kpoint 27">
       <set comment="band 1">
        <r>  0.0390  0.0115  0.0000 </r>
        <r>  0.5237  0.0034  0.0002 </r>
       </set>
       <set comment="band 2">
        <r>  0.1335  0.0234  0.0000 </r>
        <r>  0.0639  0.1892  0.0033 </r>
       </set>
       <set comment="band 3">
        <r>  0.0266  0.0678  0.0000 </r>
        <r>  0.0083  0.2818  0.0046 </r>
       </set>
       <set comment="band 4">
        <r>  0.0040  0.0744  0.0000 </r>
        <r>  0.0023  0.3527  0.0046 </r>
       </set>
       <set comment="band 5">
        <r>  0.0983  0.0560  0.0000 </r>
        <r>  0.0491  0.1108  0.0348 </r>
       </set>
       <set comment="band 6">
        <r>  0.0410  0.1038  0.0000 </r>
        <r>  0.0498  0.0767  0.0409 </r>
       </set>
       <set comment="band 7">
        <r>  0.0305  0.0701  0.0000 </r>
        <r>  0.0103  0.1059  0.0573 </r>
       </set>
       <set comment="band 8">
        <r>  0.0032  0.1257  0.0000 </r>
        <r>  0.0104  0.0989  0.0634 </r>
       </set>
      </set>
      <set comment="kpoint 28">
       <set comment="band 1">
        <r>  0.0234  0.0154  0.0000 </r>
        <r>  0.5642  0.0015  0.0002 </r>
       </set>
       <set comment="band 2">
        <r>  0.1501  0.0226  0.0000 </r>
        <r>  0.0197  0.1806  0.0031 </r>
       </set>
       <set comment="band 3">
        <r>  0.0367  0.0621  0.0000 </r>
        <r>  0.0169  0.2708  0.0042 </r>
       </set>
       <set comment="band 4">
        <r>  0.0015  0.0798  0.0000 </r>
        <r>  0.0004  0.3402  0.0041 </r>
       </set>
       <set comment="band 5">
        <r>  0.1192  0.0388  0.0000 </r>
        <r>  0.0594  0.1180  0.0324 </r>
       </set>
       <set comment="band 6">
        <r>  0.0042  0.0964  0.0000 </r>
        <r>  0.0260  0.0482  0.0512 </r>
       </set>
       <set comment="band 7">
        <r>  0.0224  0.1093  0.0000 </r>
        <r>  0.0076  0.1273  0.0582 </r>
       </set>
       <set comment="band 8">
        <r>  0.0236  0.0699  0.0000 </r>
        <r>  0.0127  0.1378  0.0586 </r>
       </set>
      </set>
      <set comment="kpoint 29">
       <set comment="band 1">
        <r>  0.0319  0.0138  0.0000 </r>
        <r>  0.5372  0.0036  0.0001 </r>
       </set>
       <set comment="band 2">
        <r>  0.1607  0.0122  0.0000 </r>
        <r>  0.0675  0.1869  0.0037 </r>
       </set>
       <set comment="band 3">
        <r>  0.0139  0.0765  0.0000 </r>
        <r>  0.0010  0.2888  0.0037 </r>
       </set>
       <set comment="band 4">
        <r>  0.0028  0.0816  0.0000 </r>
        <r>  0.0010  0.3173  0.0040 </r>
       </set>
       <set comment="band 5">
        <r>  0.0261  0.0871  0.0000 </r>
        <r>  0.0298  0.0526  0.0382 </r>
       </set>
       <set comment="band 6">
        <r>  0.1103  0.0134  0.0000 </r>
        <r>  0.0231  0.1131  0.0455 </r>
       </set>
       <set comment="band 7">
        <r>  0.0243  0.1119  0.0000 </r>
        <r>  0.0385  0.1026  0.0522 </r>
       </set>
       <set comment="band 8">
        <r>  0.0013  0.1563  0.0000 </r>
        <r>  0.0042  0.1538  0.0576 </r>
       </set>
      </set>
      <set comment="kpoint 30">
       <set comment="band 1">
        <r>  0.0154  0.0179  0.0000 </r>
        <r>  0.5782  0.0017  0.0001 </r>
       </set>
       <set comment="band 2">
        <r>  0.1867  0.0101  0.0000 </r>
        <r>  0.0266  0.1790  0.0044 </r>
       </set>
       <set comment="band 3">
        <r>  0.0183  0.0701  0.0000 </r>
        <r>  0.0044  0.2633  0.0029 </r>
       </set>
       <set comment="band 4">
        <r>  0.0017  0.0840  0.0000 </r>
        <r>  0.0001  0.3034  0.0039 </r>
       </set>
       <set comment="band 5">
        <r>  0.0410  0.0569  0.0000 </r>
        <r>  0.0306  0.0762  0.0382 </r>
       </set>
       <set comment="band 6">
        <r>  0.0923  0.0224  0.0000 </r>
        <r>  0.0092  0.1627  0.0473 </r>
       </set>
       <set comment="band 7">
        <r>  0.0176  0.1223  0.0000 </r>
        <r>  0.0431  0.0640  0.0510 </r>
       </set>
       <set comment="band 8">
        <r>  0.0107  0.1258  0.0000 </r>
        <r>  0.0115  0.1526  0.0567 </r>
       </set>
      </set>
      <set comment="kpoint 31">
       <set comment="band 1">
        <r>  0.0101  0.0189  0.0000 </r>
        <r>  0.5928  0.0008  0.0001 </r>
       </set>
       <set comment="band 2">
        <r>  0.1970  0.0104  0.0000 </r>
        <r>  0.0103  0.1761  0.0051 </r>
       </set>
       <set comment="band 3">
        <r>  0.0153  0.0677  0.0000 </r>
        <r>  0.0055  0.2526  0.0020 </r>
       </set>
       <set comment="band 4">
        <r>  0.0026  0.0831  0.0000 </r>
        <r>  0.0006  0.3073  0.0041 </r>
       </set>
       <set comment="band 5">
        <r>  0.0585  0.0458  0.0000 </r>
        <r>  0.0283  0.0896  0.0392 </r>
       </set>
       <set comment="band 6">
        <r>  0.0359  0.0729  0.0000 </r>
        <r>  0.0353  0.1218  0.0439 </r>
       </set>
       <set comment="band 7">
        <r>  0.0734  0.0565  0.0000 </r>
        <r>  0.0034  0.2084  0.0515 </r>
       </set>
       <set comment="band 8">
        <r>  0.0089  0.1134  0.0000 </r>
        <r>  0.0218  0.0493  0.0634 </r>
       </set>
      </set>
      <set comment="kpoint 32">
       <set comment="band 1">
        <r>  0.0226  0.0159  0.0000 </r>
        <r>  0.5628  0.0023  0.0002 </r>
       </set>
       <set comment="band 2">
        <r>  0.1747  0.0146  0.0000 </r>
        <r>  0.0396  0.1789  0.0046 </r>
       </set>
       <set comment="band 3">
        <r>  0.0177  0.0688  0.0000 </r>
        <r>  0.0018  0.2570  0.0027 </r>
       </set>
       <set comment="band 4">
        <r>  0.0037  0.0797  0.0000 </r>
        <r>  0.0015  0.3253  0.0046 </r>
       </set>
       <set comment="band 5">
        <r>  0.0800  0.0380  0.0000 </r>
        <r>  0.0249  0.1169  0.0383 </r>
       </set>
       <set comment="band 6">
        <r>  0.0025  0.1223  0.0000 </r>
        <r>  0.0613  0.0641  0.0377 </r>
       </set>
       <set comment="band 7">
        <r>  0.0761  0.0459  0.0000 </r>
        <r>  0.0029  0.1480  0.0598 </r>
       </set>
       <set comment="band 8">
        <r>  0.0025  0.1236  0.0000 </r>
        <r>  0.0134  0.1412  0.0551 </r>
       </set>
      </set>
      <set comment="kpoint 33">
       <set comment="band 1">
        <r>  0.0053  0.0208  0.0000 </r>
        <r>  0.5984  0.0008  0.0001 </r>
       </set>
       <set comment="band 2">
        <r>  0.2056  0.0020  0.0000 </r>
        <r>  0.0120  0.1795  0.0041 </r>
       </set>
       <set comment="band 3">
        <r>  0.0090  0.0779  0.0000 </r>
        <r>  0.0006  0.2859  0.0021 </r>
       </set>
       <set comment="band 4">
        <r>  0.0000  0.0884  0.0000 </r>
        <r>  0.0003  0.2850  0.0033 </r>
       </set>
       <set comment="band 5">
        <r>  0.0031  0.0700  0.0000 </r>
        <r>  0.0438  0.0509  0.0333 </r>
       </set>
       <set comment="band 6">
        <r>  0.1246  0.0165  0.0000 </r>
        <r>  0.0019  0.0961  0.0527 </r>
       </set>
       <set comment="band 7">
        <r>  0.0185  0.1131  0.0000 </r>
        <r>  0.0307  0.1359  0.0448 </r>
       </set>
       <set comment="band 8">
        <r>  0.0205  0.1679  0.0000 </r>
        <r>  0.0039  0.2105  0.0342 </r>
       </set>
      </set>
      <set comment="kpoint 34">
       <set comment="band 1">
        <r>  0.0012  0.0214  0.0000 </r>
        <r>  0.6104  0.0001  0.0001 </r>
       </set>
       <set comment="band 2">
        <r>  0.2220  0.0011  0.0000 </r>
        <r>  0.0011  0.1762  0.0054 </r>
       </set>
       <set comment="band 3">
        <r>  0.0016  0.0750  0.0000 </r>
        <r>  0.0000  0.2578  0.0017 </r>
       </set>
       <set comment="band 4">
        <r>  0.0028  0.0853  0.0000 </r>
        <r>  0.0007  0.2883  0.0034 </r>
       </set>
       <set comment="band 5">
        <r>  0.0343  0.0518  0.0000 </r>
        <r>  0.0324  0.0733  0.0374 </r>
       </set>
       <set comment="band 6">
        <r>  0.0850  0.0321  0.0000 </r>
        <r>  0.0038  0.1417  0.0520 </r>
       </set>
       <set comment="band 7">
        <r>  0.0010  0.1258  0.0000 </r>
        <r>  0.0485  0.0995  0.0317 </r>
       </set>
       <set comment="band 8">
        <r>  0.0543  0.0885  0.0000 </r>
        <r>  0.0029  0.1420  0.0734 </r>
       </set>
      </set>
      <set comment="kpoint 35">
       <set comment="band 1">
        <r>  0.0033  0.0207  0.0000 </r>
        <r>  0.6066  0.0004  0.0001 </r>
       </set>
       <set comment="band 2">
        <r>  0.2236  0.0024  0.0000 </r>
        <r>  0.0056  0.1746  0.0059 </r>
       </set>
       <set comment="band 3">
        <r>  0.0038  0.0698  0.0000 </r>
        <r>  0.0008  0.2632  0.0012 </r>
       </set>
       <set comment="band 4">
        <r>  0.0012  0.0858  0.0000 </r>
        <r>  0.0001  0.2668  0.0044 </r>
       </set>
       <set comment="band 5">
        <r>  0.0073  0.0222  0.0000 </r>
        <r>  0.0085  0.1636  0.0353 </r>
       </set>
       <set comment="band 6">
        <r>  0.1314  0.0328  0.0000 </r>
        <r>  0.0228  0.1733  0.0439 </r>
       </set>
       <set comment="band 7">
        <r>  0.0013  0.1384  0.0000 </r>
        <r>  0.0423  0.0178  0.0559 </r>
       </set>
       <set comment="band 8">
        <r>  0.0312  0.0979  0.0000 </r>
        <r>  0.0157  0.0994  0.0613 </r>
       </set>
      </set>
     </set>
    </set>
   </array>
  </projected>
 </calculation>
 <structure name="finalpos" >
  <crystal>
   <varray name="basis" >
    <v>       0.00000000       2.86639807       2.86639807 </v>
    <v>       2.86639807       0.00000000       2.86639807 </v>
    <v>       2.86639807       2.86639807       0.00000000 </v>
   </varray>
   <i name="volume">     47.10201681 </i>
   <varray name="rec_basis" >
    <v>      -0.17443495       0.17443495       0.17443495 </v>
    <v>       0.17443495      -0.17443495       0.17443495 </v>
    <v>       0.17443495       0.17443495      -0.17443495 </v>
   </varray>
  </crystal>
  <varray name="positions" >
   <v>       0.00000000       0.00000000       0.00000000 </v>
   <v>       0.25000000       0.25000000       0.25000000 </v>
  </varray>
 </structure>
</modeling>
