AlAs                                    
           1
     0.000000    2.866398    2.866398
     2.866398    0.000000    2.866398
     2.866398    2.866398    0.000000
   Al   As
   1   1
Direct configuration=     1
   0.00000000  0.00000000  0.00000000
   0.25000000  0.25000000  0.25000000
