   2   2   1   0
  0.1660908E+02  0.3608252E-09  0.3608252E-09  0.3608252E-09  0.5000000E-15
  1.000000000000000E-004
  CAR 
 InN                                     
     15.90979011    -11.56587778   11      3.74899981      1.00000000
    -11.566  0.0000E+00  0.0000E+00
     -8.818  0.1062E-02  0.1018E-01
     -6.071  0.0000E+00  0.2000E-01
     -3.323  0.0000E+00  0.2000E-01
     -0.576  0.3494E-03  0.3386E-01
      2.172  0.6430E-03  0.5863E-01
      4.920  0.0000E+00  0.8030E-01
      7.667  0.6106E-03  0.9136E-01
     10.415  0.1232E-13  0.1169E+00
     13.162  0.5901E-03  0.1434E+00
     15.910  0.0000E+00  0.1600E+00
     15.90979011    -11.56587778   11      3.74899981      1.00000000
    -11.566  0.0000E+00  0.0000E+00  0.0000E+00
     -8.818  0.1075E-01  0.1329E-01  0.3397E-02
     -6.071  0.0000E+00  0.0000E+00  0.0000E+00
     -3.323  0.0000E+00  0.0000E+00  0.0000E+00
     -0.576  0.1251E-01  0.4411E-02  0.1247E-02
      2.172  0.1374E-02  0.1744E-01  0.3551E-02
      4.920  0.0000E+00  0.0000E+00  0.0000E+00
      7.667  0.9400E-02  0.1201E-01  0.4748E-02
     10.415  0.1231E-12  0.2576E-12  0.8112E-13
     13.162  0.5957E-17  0.3543E-01  0.6872E-02
     15.910  0.0000E+00  0.0000E+00  0.0000E+00
     15.90979011    -11.56587778   11      3.74899981      1.00000000
    -11.566  0.0000E+00  0.0000E+00  0.0000E+00
     -8.818  0.6194E-01  0.1326E-03  0.0000E+00
     -6.071  0.0000E+00  0.0000E+00  0.0000E+00
     -3.323  0.0000E+00  0.0000E+00  0.0000E+00
     -0.576  0.1753E-02  0.8448E-02  0.0000E+00
      2.172  0.2001E-03  0.2899E-01  0.0000E+00
      4.920  0.0000E+00  0.0000E+00  0.0000E+00
      7.667  0.4686E-02  0.1025E-01  0.0000E+00
     10.415  0.4856E-14  0.3009E-12  0.0000E+00
     13.162  0.2198E-17  0.3273E-02  0.0000E+00
     15.910  0.0000E+00  0.0000E+00  0.0000E+00
