    2    2  100    1
  0.1660908E+02  0.3608252E-09  0.3608252E-09  0.3608252E-09  0.5000000E-15
  1.000000000000000E-004
  CAR 
 InN                                     
      8     47      8
 
  0.0000000E+00  0.0000000E+00  0.0000000E+00  0.1000000E-02
    1      -10.316984   1.000000
    2        3.188504   1.000000
    3        3.745954   0.666685
    4        3.745954   0.666663
    5        3.745954   0.666652
    6       12.870135   0.000000
    7       12.870135   0.000000
    8       12.870135   0.000000
 
  0.1000000E+00  0.3124563E-17 -0.2055771E-17  0.8000000E-02
    1      -10.210703   1.000000
    2        2.275894   1.000000
    3        3.665707   1.000000
    4        3.665707   1.000000
    5        4.518596   0.000000
    6       12.242065   0.000000
    7       12.971145   0.000000
    8       12.971145   0.000000
 
  0.2000000E+00  0.4760656E-17 -0.2623070E-17  0.8000000E-02
    1       -9.908906   1.000000
    2        1.009045   1.000000
    3        3.464815   1.000000
    4        3.464816   1.000000
    5        5.388249   0.000000
    6       11.196623   0.000000
    7       13.125837   0.000000
    8       13.125838   0.000000
 
  0.3000000E+00  0.1482411E-16  0.1613784E-16  0.8000000E-02
    1       -9.474719   1.000000
    2       -0.265726   1.000000
    3        3.231958   1.000000
    4        3.231958   1.000000
    5        6.082876   0.000000
    6       10.458817   0.000000
    7       13.092838   0.000000
    8       13.092839   0.000000
 
  0.4000000E+00  0.9521312E-17 -0.5246140E-17  0.8000000E-02
    1       -9.050840   1.000000
    2       -1.269492   1.000000
    3        3.053936   1.000000
    4        3.053937   1.000000
    5        6.496206   0.000000
    6       10.139468   0.000000
    7       12.934544   0.000000
    8       12.934545   0.000000
 
  0.5000000E+00  0.5706981E-17 -0.3630171E-18  0.4000000E-02
    1       -8.864003   1.000000
    2       -1.663554   1.000000
    3        2.988066   1.000000
    4        2.988066   1.000000
    5        6.621080   0.000000
    6       10.074966   0.000000
    7       12.855783   0.000000
    8       12.855784   0.000000
 
  0.1000000E+00  0.1000000E+00 -0.2418695E-18  0.6000000E-02
    1      -10.175486   1.000000
    2        2.198500   1.000000
    3        3.521191   1.000000
    4        3.521192   1.000000
    5        4.788379   0.000000
    6       12.107750   0.000000
    7       12.979502   0.000000
    8       12.979502   0.000000
 
  0.2000000E+00  0.1000000E+00  0.1570286E-17  0.2400000E-01
    1       -9.939123   1.000000
    2        1.300002   1.000000
    3        3.272101   1.000000
    4        3.323887   1.000000
    5        5.510819   0.000000
    6       11.312996   0.000000
    7       12.965617   0.000000
    8       13.131142   0.000000
 
  0.3000000E+00  0.1000000E+00 -0.4854846E-18  0.2400000E-01
    1       -9.546791   1.000000
    2        0.135853   1.000000
    3        3.024136   1.000000
    4        3.053362   1.000000
    5        6.256916   0.000000
    6       10.586544   0.000000
    7       12.640920   0.000000
    8       13.204214   0.000000
 
  0.4000000E+00  0.1000000E+00 -0.7991678E-17  0.2400000E-01
    1       -9.109562   1.000000
    2       -0.921991   1.000000
    3        2.757505   1.000000
    4        2.867464   1.000000
    5        6.828371   0.000000
    6       10.129667   0.000000
    7       12.414288   0.000000
    8       13.121607   0.000000
 
  0.5000000E+00  0.1000000E+00 -0.3108555E-17  0.2400000E-01
    1       -8.827855   1.000000
    2       -1.518784   1.000000
    3        2.536250   1.000000
    4        2.850870   1.000000
    5        7.104531   0.000000
    6        9.942422   0.000000
    7       12.352677   0.000000
    8       13.023378   0.000000
 
 -0.4000000E+00  0.1000000E+00  0.2500603E-17  0.2400000E-01
    1       -8.890479   1.000000
    2       -1.390798   1.000000
    3        2.458671   1.000000
    4        2.977109   1.000000
    5        7.067757   0.000000
    6        9.991361   0.000000
    7       12.298379   0.000000
    8       13.048962   0.000000
 
 -0.3000000E+00  0.1000000E+00 -0.8831833E-17  0.2400000E-01
    1       -9.250691   1.000000
    2       -0.604646   1.000000
    3        2.559648   1.000000
    4        3.205271   1.000000
    5        6.693453   0.000000
    6       10.306714   0.000000
    7       12.280747   0.000000
    8       13.211524   0.000000
 
 -0.2000000E+00  0.1000000E+00 -0.1400026E-16  0.2400000E-01
    1       -9.690801   1.000000
    2        0.505125   1.000000
    3        2.842669   1.000000
    4        3.458278   1.000000
    5        6.011286   0.000000
    6       10.915849   0.000000
    7       12.440588   0.000000
    8       13.327573   0.000000
 
 -0.1000000E+00  0.1000000E+00  0.6249127E-17  0.1200000E-01
    1      -10.039117   1.000000
    2        1.573079   1.000000
    3        3.271162   1.000000
    4        3.639076   1.000000
    5        5.183375   0.000000
    6       11.674678   0.000000
    7       12.770561   0.000000
    8       13.171765   0.000000
 
  0.2000000E+00  0.2000000E+00 -0.4837390E-18  0.6000000E-02
    1       -9.776057   1.000000
    2        1.070007   1.000000
    3        2.968577   1.000000
    4        2.968578   1.000000
    5        5.975386   0.000000
    6       10.755246   0.000000
    7       13.329114   0.000000
    8       13.329114   0.000000
 
  0.3000000E+00  0.2000000E+00  0.2219401E-17  0.2400000E-01
    1       -9.450920   1.000000
    2        0.330143   1.000000
    3        2.616167   1.000000
    4        2.680349   1.000000
    5        6.571946   0.000000
    6       10.225599   0.000000
    7       12.658368   0.000000
    8       13.523066   0.000000
 
  0.4000000E+00  0.2000000E+00  0.1652101E-17  0.2400000E-01
    1       -9.048109   1.000000
    2       -0.533335   1.000000
    3        2.156416   1.000000
    4        2.509707   1.000000
    5        7.239685   0.000000
    6        9.920297   0.000000
    7       12.020214   0.000000
    8       13.553262   0.000000
 
  0.5000000E+00  0.2000000E+00  0.2041301E-16  0.2400000E-01
    1       -8.727718   1.000000
    2       -1.155211   1.000000
    3        1.726745   1.000000
    4        2.509172   1.000000
    5        7.809047   0.000000
    6        9.651552   0.000000
    7       11.870209   0.000000
    8       13.461156   0.000000
 
 -0.4000000E+00  0.2000000E+00 -0.1178495E-16  0.2400000E-01
    1       -8.677412   1.000000
    2       -1.245396   1.000000
    3        1.480916   1.000000
    4        2.677044   1.000000
    5        8.080619   0.000000
    6        9.555936   0.000000
    7       11.701826   0.000000
    8       13.391985   0.000000
 
 -0.3000000E+00  0.2000000E+00  0.4638188E-17  0.2400000E-01
    1       -8.932212   1.000000
    2       -0.789471   1.000000
    3        1.542067   1.000000
    4        2.959583   1.000000
    5        7.738356   0.000000
    6       10.006873   0.000000
    7       11.375004   0.000000
    8       13.424721   0.000000
 
 -0.2000000E+00  0.2000000E+00  0.9521312E-17  0.1200000E-01
    1       -9.329908   1.000000
    2       -0.107770   1.000000
    3        2.024648   1.000000
    4        3.259342   1.000000
    5        6.932813   0.000000
    6       10.680567   0.000000
    7       11.439298   0.000000
    8       13.471530   0.000000
 
  0.3000000E+00  0.3000000E+00 -0.7256086E-18  0.6000000E-02
    1       -9.207340   1.000000
    2        0.051767   1.000000
    3        2.344584   1.000000
    4        2.344584   1.000000
    5        6.736888   0.000000
    6        9.716140   0.000000
    7       12.992489   0.000000
    8       13.875980   0.000000
 
  0.4000000E+00  0.3000000E+00  0.5845457E-17  0.2400000E-01
    1       -8.880641   1.000000
    2       -0.464996   1.000000
    3        1.908962   1.000000
    4        2.135249   1.000000
    5        7.070969   0.000000
    6        9.553096   0.000000
    7       12.409549   0.000000
    8       14.060242   0.000000
 
  0.5000000E+00  0.3000000E+00  0.3789687E-17  0.2400000E-01
    1       -8.591338   1.000000
    2       -0.864184   1.000000
    3        1.265310   1.000000
    4        2.116219   1.000000
    5        7.648893   0.000000
    6        9.569096   0.000000
    7       12.090968   0.000000
    8       14.011436   0.000000
 
 -0.4000000E+00  0.3000000E+00 -0.1453049E-16  0.2400000E-01
    1       -8.486561   1.000000
    2       -0.965043   1.000000
    3        0.767661   1.000000
    4        2.292127   1.000000
    5        8.314518   0.000000
    6        9.424094   0.000000
    7       11.822419   0.000000
    8       13.830023   0.000000
 
 -0.3000000E+00  0.3000000E+00 -0.2586293E-16  0.1200000E-01
    1       -8.629127   1.000000
    2       -0.875663   1.000000
    3        0.812302   1.000000
    4        2.608974   1.000000
    5        8.623900   0.000000
    6        9.336446   0.000000
    7       11.382541   0.000000
    8       13.627108   0.000000
 
  0.4000000E+00  0.4000000E+00 -0.9674781E-18  0.6000000E-02
    1       -8.658529   1.000000
    2       -0.740852   1.000000
    3        1.878456   1.000000
    4        1.878456   1.000000
    5        6.774775   0.000000
    6        9.371599   0.000000
    7       12.614942   0.000000
    8       14.421640   0.000000
 
  0.5000000E+00  0.4000000E+00 -0.9296337E-17  0.2400000E-01
    1       -8.468731   1.000000
    2       -0.950158   1.000000
    3        1.471708   1.000000
    4        1.818053   1.000000
    5        6.995425   0.000000
    6        9.432773   0.000000
    7       12.545038   0.000000
    8       14.476069   0.000000
 
 -0.4000000E+00  0.4000000E+00  0.1904262E-16  0.1200000E-01
    1       -8.401062   1.000000
    2       -0.924534   1.000000
    3        0.859223   1.000000
    4        1.970922   1.000000
    5        7.632917   0.000000
    6        9.566516   0.000000
    7       12.351231   0.000000
    8       14.235728   0.000000
 
  0.5000000E+00  0.5000000E+00 -0.1209348E-17  0.3000000E-02
    1       -8.418479   1.000000
    2       -1.059979   1.000000
    3        1.708201   1.000000
    4        1.708201   1.000000
    5        6.652129   0.000000
    6        9.335730   0.000000
    7       12.626338   0.000000
    8       14.660896   0.000000
 
  0.3000000E+00  0.2000000E+00  0.1000000E+00  0.2400000E-01
    1       -9.656672   1.000000
    2        0.623165   1.000000
    3        2.676045   1.000000
    4        3.217866   1.000000
    5        6.213741   0.000000
    6       10.793676   0.000000
    7       12.377830   0.000000
    8       13.426257   0.000000
 
  0.4000000E+00  0.2000000E+00  0.1000000E+00  0.4800000E-01
    1       -9.254969   1.000000
    2       -0.259438   1.000000
    3        2.174804   1.000000
    4        2.984316   1.000000
    5        6.997763   0.000000
    6       10.333757   0.000000
    7       11.793606   0.000000
    8       13.465346   0.000000
 
  0.5000000E+00  0.2000000E+00  0.1000000E+00  0.4800000E-01
    1       -8.869672   1.000000
    2       -1.047742   1.000000
    3        1.908459   1.000000
    4        2.737451   1.000000
    5        7.614865   0.000000
    6        9.875284   0.000000
    7       11.743174   0.000000
    8       13.330579   0.000000
 
 -0.4000000E+00  0.2000000E+00  0.1000000E+00  0.2400000E-01
    1       -8.702592   1.000000
    2       -1.370565   1.000000
    3        1.832879   1.000000
    4        2.631657   1.000000
    5        7.857227   0.000000
    6        9.661549   0.000000
    7       11.838616   0.000000
    8       13.257062   0.000000
 
  0.4000000E+00  0.3000000E+00  0.1000000E+00  0.2400000E-01
    1       -9.120109   1.000000
    2       -0.195610   1.000000
    3        2.032531   1.000000
    4        2.492379   1.000000
    5        7.119204   0.000000
    6        9.888759   0.000000
    7       12.092976   0.000000
    8       13.760598   0.000000
 
  0.5000000E+00  0.3000000E+00  0.1000000E+00  0.4800000E-01
    1       -8.767448   1.000000
    2       -0.732651   1.000000
    3        1.516828   1.000000
    4        2.246067   1.000000
    5        7.815097   0.000000
    6        9.723184   0.000000
    7       11.672478   0.000000
    8       13.645769   0.000000
 
 -0.4000000E+00  0.3000000E+00  0.1000000E+00  0.4800000E-01
    1       -8.553589   1.000000
    2       -1.042088   1.000000
    3        1.140297   1.000000
    4        2.190903   1.000000
    5        8.472760   0.000000
    6        9.435938   0.000000
    7       11.618351   0.000000
    8       13.457788   0.000000
 
 -0.3000000E+00  0.3000000E+00  0.1000000E+00  0.4800000E-01
    1       -8.608172   1.000000
    2       -0.965232   1.000000
    3        1.033566   1.000000
    4        2.380826   1.000000
    5        8.657606   0.000000
    6        9.390516   0.000000
    7       11.371070   0.000000
    8       13.468941   0.000000
 
 -0.2000000E+00  0.3000000E+00  0.1000000E+00  0.2400000E-01
    1       -8.894876   1.000000
    2       -0.633240   1.000000
    3        1.381549   1.000000
    4        2.704129   1.000000
    5        7.925776   0.000000
    6        9.992770   0.000000
    7       11.191912   0.000000
    8       13.549857   0.000000
 
  0.5000000E+00  0.4000000E+00  0.1000000E+00  0.2400000E-01
    1       -8.614215   1.000000
    2       -0.764846   1.000000
    3        1.580697   1.000000
    4        1.821824   1.000000
    5        7.353233   0.000000
    6        9.533460   0.000000
    7       12.264618   0.000000
    8       13.864955   0.000000
 
 -0.4000000E+00  0.4000000E+00  0.1000000E+00  0.4800000E-01
    1       -8.433875   1.000000
    2       -0.881281   1.000000
    3        1.015489   1.000000
    4        1.751834   1.000000
    5        7.970501   0.000000
    6        9.625971   0.000000
    7       12.144773   0.000000
    8       13.355034   0.000000
 
 -0.3000000E+00  0.4000000E+00  0.1000000E+00  0.2400000E-01
    1       -8.432573   1.000000
    2       -0.857236   1.000000
    3        0.655594   1.000000
    4        1.991072   1.000000
    5        8.668196   0.000000
    6        9.450066   0.000000
    7       11.688656   0.000000
    8       13.348225   0.000000
 
 -0.4000000E+00  0.5000000E+00  0.1000000E+00  0.1200000E-01
    1       -8.397768   1.000000
    2       -0.976748   1.000000
    3        1.458268   1.000000
    4        1.510003   1.000000
    5        7.284064   0.000000
    6        9.514933   0.000000
    7       12.592159   0.000000
    8       13.690149   0.000000
 
 -0.4000000E+00  0.4000000E+00  0.2000000E+00  0.2400000E-01
    1       -8.515394   1.000000
    2       -0.820729   1.000000
    3        1.012670   1.000000
    4        1.833153   1.000000
    5        8.576423   0.000000
    6        9.642575   0.000000
    7       11.412759   0.000000
    8       13.277809   0.000000
 
 -0.3000000E+00  0.4000000E+00  0.2000000E+00  0.2400000E-01
    1       -8.411974   1.000000
    2       -0.841534   1.000000
    3        0.842224   1.000000
    4        1.621564   1.000000
    5        8.994960   0.000000
    6        9.536824   0.000000
    7       11.464977   0.000000
    8       12.957271   0.000000
 
 -0.3000000E+00  0.5000000E+00  0.2000000E+00  0.1200000E-01
    1       -8.363741   1.000000
    2       -0.815447   1.000000
    3        1.113548   1.000000
    4        1.174825   1.000000
    5        8.583748   0.000000
    6        9.781667   0.000000
    7       12.013906   0.000000
    8       12.540145   0.000000
