       N       E                     dE             d eps       ncg     rms          rms(c)
DAV:   1     0.315771492701E+02    0.31577E+02   -0.49603E+03   752   0.121E+03
DAV:   2    -0.108883960400E+02   -0.42466E+02   -0.40986E+02  1088   0.174E+02
DAV:   3    -0.128988567837E+02   -0.20105E+01   -0.20105E+01   888   0.457E+01
DAV:   4    -0.129091108823E+02   -0.10254E-01   -0.10254E-01  1120   0.349E+00
DAV:   5    -0.129091299724E+02   -0.19090E-04   -0.19090E-04   896   0.865E-02
DAV:   6    -0.129091299870E+02   -0.14543E-07   -0.14543E-07  1064   0.307E-03
DAV:   7    -0.129091299870E+02   -0.26375E-10   -0.26388E-10   976   0.845E-05
DAV:   8    -0.129091299870E+02    0.00000E+00   -0.55483E-13   680   0.295E-06    0.101E+01
DAV:   9    -0.109277535214E+02    0.19814E+01   -0.70406E+00   880   0.162E+01    0.541E+00
DAV:  10    -0.106787766413E+02    0.24898E+00   -0.16682E+00   904   0.784E+00    0.352E+00
DAV:  11    -0.106271948094E+02    0.51582E-01   -0.91761E-02   864   0.337E+00    0.409E-01
DAV:  12    -0.106238855827E+02    0.33092E-02   -0.12840E-02   912   0.632E-01    0.281E-01
DAV:  13    -0.106237842258E+02    0.10136E-03   -0.13589E-03   872   0.275E-01    0.160E-01
DAV:  14    -0.106238036050E+02   -0.19379E-04   -0.12225E-04   848   0.105E-01    0.118E-02
DAV:  15    -0.106238007602E+02    0.28448E-05   -0.69375E-06   936   0.147E-02    0.183E-02
DAV:  16    -0.106237995855E+02    0.11747E-05   -0.38899E-06  1000   0.152E-02    0.162E-03
DAV:  17    -0.106237995685E+02    0.16970E-07   -0.15562E-07   696   0.367E-03
   1 F= -.10623800E+02 E0= -.10623792E+02  d E =-.106238E+02
