 vasp.5.4.4.18Apr17-6-g9f103f2a35 (build Apr 10 2018 17:34:00) complex          
  
 executed on             LinuxIFC date 2018.10.04  08:24:09
 running on   10 total cores
 distrk:  each k-point on   10 cores,    1 groups
 distr:  one band on NCORES_PER_BAND=   5 cores,    2 groups


--------------------------------------------------------------------------------------------------------


 INCAR:
 POTCAR:    PAW_PBE In 08Apr2002                  
 POTCAR:    PAW_PBE N 08Apr2002                   
 POTCAR:    PAW_PBE In 08Apr2002                  
  local pseudopotential read in
  partial core-charges read in
  partial kinetic energy density read in
  atomic valenz-charges read in
  non local Contribution for L=           0  read in
    real space projection operators read in
  non local Contribution for L=           0  read in
    real space projection operators read in
  non local Contribution for L=           1  read in
    real space projection operators read in
  non local Contribution for L=           1  read in
    real space projection operators read in
  non local Contribution for L=           2  read in
    real space projection operators read in
    PAW grid and wavefunctions read in
 
   number of l-projection  operators is LMAX  =           5
   number of lm-projection operators is LMMAX =          13
 
 POTCAR:    PAW_PBE N 08Apr2002                   
  local pseudopotential read in
  partial core-charges read in
  partial kinetic energy density read in
  atomic valenz-charges read in
  non local Contribution for L=           0  read in
    real space projection operators read in
  non local Contribution for L=           0  read in
    real space projection operators read in
  non local Contribution for L=           1  read in
    real space projection operators read in
  non local Contribution for L=           1  read in
    real space projection operators read in
    PAW grid and wavefunctions read in
 
   number of l-projection  operators is LMAX  =           4
   number of lm-projection operators is LMMAX =           8
 
 WARNING: PSMAXN for non-local potential too small
          PSMAXN should be >   14.4904333269122       NTYP=           1
  PAW_PBE In 08Apr2002                  :
 energy of atom  1       EATOM=  -53.7908
 kinetic energy error for atom=    0.0000 (will be added to EATOM!!)
  PAW_PBE N 08Apr2002                   :
 energy of atom  2       EATOM= -264.5486
 kinetic energy error for atom=    0.0029 (will be added to EATOM!!)
 
 
 POSCAR: InN                                     
  positions in direct lattice
  velocities in cartesian coordinates
 exchange correlation table for  LEXCH =        8
   RHO(1)=    0.500       N(1)  =     2000
   RHO(2)=  100.500       N(2)  =     4000
 


--------------------------------------------------------------------------------------------------------


 ion  position               nearest neighbor table
   1  0.000  0.000  0.000-   2 2.21   2 2.21   2 2.21   2 2.21
   2  0.250  0.250  0.250-   1 2.21   1 2.21   1 2.21   1 2.21
 
  LATTYP: Found a face centered cubic cell.
 ALAT       =     5.1028390968
  
  Lattice vectors:
  
 A1 = (   0.0000000000,   2.5514195484,   2.5514195484)
 A2 = (   2.5514195484,   0.0000000000,   2.5514195484)
 A3 = (   2.5514195484,   2.5514195484,   0.0000000000)


Analysis of symmetry for initial positions (statically):
=====================================================================
 Subroutine PRICEL returns:
 Original cell was already a primitive cell.
 

 Routine SETGRP: Setting up the symmetry group for a 
 face centered cubic supercell.


 Subroutine GETGRP returns: Found 24 space group operations
 (whereof 24 operations were pure point group operations)
 out of a pool of 48 trial point group operations.


The static configuration has the point symmetry T_d .


Analysis of symmetry for dynamics (positions and initial velocities):
=====================================================================
 Subroutine PRICEL returns:
 Original cell was already a primitive cell.
 

 Routine SETGRP: Setting up the symmetry group for a 
 face centered cubic supercell.


 Subroutine GETGRP returns: Found 24 space group operations
 (whereof 24 operations were pure point group operations)
 out of a pool of 48 trial point group operations.


The dynamic configuration has the point symmetry T_d .


 Subroutine INISYM returns: Found 24 space group operations
 (whereof 24 operations are pure point group operations),
 and found     1 'primitive' translations

 
 
 KPOINTS: InN                                     

Automatic generation of k-mesh.
 generate k-points for:   10   10   10
Space group operators:
 irot       det(A)        alpha          n_x          n_y          n_z        tau_x        tau_y        tau_z
    1     1.000000     0.000001     1.000000     0.000000     0.000000     0.000000     0.000000     0.000000
    2     1.000000   120.000000    -0.577350    -0.577350    -0.577350     0.000000     0.000000     0.000000
    3     1.000000   120.000000     0.577350     0.577350     0.577350     0.000000     0.000000     0.000000
    4    -1.000000    90.000000     0.000000     0.000000    -1.000000     0.000000     0.000000     0.000000
    5    -1.000000   180.000000     0.000000     0.707107     0.707107     0.000000     0.000000     0.000000
    6    -1.000000    90.000000    -0.000000     1.000000     0.000000     0.000000     0.000000     0.000000
    7     1.000000   180.000000     0.000000     0.000000     1.000000     0.000000     0.000000     0.000000
    8     1.000000   120.000000    -0.577350     0.577350     0.577350     0.000000     0.000000     0.000000
    9     1.000000   120.000000    -0.577350     0.577350    -0.577350     0.000000     0.000000     0.000000
   10    -1.000000    90.000000     0.000000     0.000000     1.000000     0.000000     0.000000     0.000000
   11    -1.000000    90.000000    -1.000000     0.000000     0.000000     0.000000     0.000000     0.000000
   12    -1.000000   180.000000     0.707107     0.000000     0.707107     0.000000     0.000000     0.000000
   13     1.000000   120.000000     0.577350    -0.577350     0.577350     0.000000     0.000000     0.000000
   14     1.000000   120.000000    -0.577350    -0.577350     0.577350     0.000000     0.000000     0.000000
   15     1.000000   180.000000     1.000000     0.000000     0.000000     0.000000     0.000000     0.000000
   16    -1.000000    90.000000     0.000000    -1.000000    -0.000000     0.000000     0.000000     0.000000
   17    -1.000000   180.000000     0.707107     0.707107    -0.000000     0.000000     0.000000     0.000000
   18    -1.000000    90.000000     1.000000     0.000000     0.000000     0.000000     0.000000     0.000000
   19     1.000000   120.000000     0.577350    -0.577350    -0.577350     0.000000     0.000000     0.000000
   20     1.000000   180.000000    -0.000000     1.000000     0.000000     0.000000     0.000000     0.000000
   21     1.000000   120.000000     0.577350     0.577350    -0.577350     0.000000     0.000000     0.000000
   22    -1.000000   180.000000     0.000000    -0.707107     0.707107     0.000000     0.000000     0.000000
   23    -1.000000   180.000000     0.707107    -0.707107     0.000000     0.000000     0.000000     0.000000
   24    -1.000000   180.000000     0.707107     0.000000    -0.707107     0.000000     0.000000     0.000000
 
 Subroutine IBZKPT returns following result:
 ===========================================
 
 Found     47 irreducible k-points:
 
 Following reciprocal coordinates:
            Coordinates               Weight
  0.000000  0.000000  0.000000      1.000000
  0.100000  0.000000 -0.000000      8.000000
  0.200000  0.000000 -0.000000      8.000000
  0.300000  0.000000  0.000000      8.000000
  0.400000  0.000000 -0.000000      8.000000
  0.500000  0.000000 -0.000000      4.000000
  0.100000  0.100000 -0.000000      6.000000
  0.200000  0.100000  0.000000     24.000000
  0.300000  0.100000 -0.000000     24.000000
  0.400000  0.100000 -0.000000     24.000000
  0.500000  0.100000 -0.000000     24.000000
 -0.400000  0.100000  0.000000     24.000000
 -0.300000  0.100000 -0.000000     24.000000
 -0.200000  0.100000 -0.000000     24.000000
 -0.100000  0.100000  0.000000     12.000000
  0.200000  0.200000 -0.000000      6.000000
  0.300000  0.200000  0.000000     24.000000
  0.400000  0.200000  0.000000     24.000000
  0.500000  0.200000  0.000000     24.000000
 -0.400000  0.200000 -0.000000     24.000000
 -0.300000  0.200000  0.000000     24.000000
 -0.200000  0.200000  0.000000     12.000000
  0.300000  0.300000 -0.000000      6.000000
  0.400000  0.300000  0.000000     24.000000
  0.500000  0.300000  0.000000     24.000000
 -0.400000  0.300000 -0.000000     24.000000
 -0.300000  0.300000 -0.000000     12.000000
  0.400000  0.400000 -0.000000      6.000000
  0.500000  0.400000 -0.000000     24.000000
 -0.400000  0.400000  0.000000     12.000000
  0.500000  0.500000 -0.000000      3.000000
  0.300000  0.200000  0.100000     24.000000
  0.400000  0.200000  0.100000     48.000000
  0.500000  0.200000  0.100000     48.000000
 -0.400000  0.200000  0.100000     24.000000
  0.400000  0.300000  0.100000     24.000000
  0.500000  0.300000  0.100000     48.000000
 -0.400000  0.300000  0.100000     48.000000
 -0.300000  0.300000  0.100000     48.000000
 -0.200000  0.300000  0.100000     24.000000
  0.500000  0.400000  0.100000     24.000000
 -0.400000  0.400000  0.100000     48.000000
 -0.300000  0.400000  0.100000     24.000000
 -0.400000  0.500000  0.100000     12.000000
 -0.400000  0.400000  0.200000     24.000000
 -0.300000  0.400000  0.200000     24.000000
 -0.300000  0.500000  0.200000     12.000000
 
 Following cartesian coordinates:
            Coordinates               Weight
  0.000000  0.000000  0.000000      1.000000
 -0.019597  0.019597  0.019597      8.000000
 -0.039194  0.039194  0.039194      8.000000
 -0.058791  0.058791  0.058791      8.000000
 -0.078388  0.078388  0.078388      8.000000
 -0.097985  0.097985  0.097985      4.000000
  0.000000  0.000000  0.039194      6.000000
 -0.019597  0.019597  0.058791     24.000000
 -0.039194  0.039194  0.078388     24.000000
 -0.058791  0.058791  0.097985     24.000000
 -0.078388  0.078388  0.117582     24.000000
  0.097985 -0.097985 -0.058791     24.000000
  0.078388 -0.078388 -0.039194     24.000000
  0.058791 -0.058791 -0.019597     24.000000
  0.039194 -0.039194  0.000000     12.000000
  0.000000  0.000000  0.078388      6.000000
 -0.019597  0.019597  0.097985     24.000000
 -0.039194  0.039194  0.117582     24.000000
 -0.058791  0.058791  0.137179     24.000000
  0.117582 -0.117582 -0.039194     24.000000
  0.097985 -0.097985 -0.019597     24.000000
  0.078388 -0.078388  0.000000     12.000000
  0.000000  0.000000  0.117582      6.000000
 -0.019597  0.019597  0.137179     24.000000
 -0.039194  0.039194  0.156775     24.000000
  0.137179 -0.137179 -0.019597     24.000000
  0.117582 -0.117582 -0.000000     12.000000
  0.000000  0.000000  0.156775      6.000000
 -0.019597  0.019597  0.176372     24.000000
  0.156775 -0.156775  0.000000     12.000000
  0.000000  0.000000  0.195969      3.000000
  0.000000  0.039194  0.078388     24.000000
 -0.019597  0.058791  0.097985     48.000000
 -0.039194  0.078388  0.117582     48.000000
  0.137179 -0.097985 -0.058791     24.000000
 -0.000000  0.039194  0.117582     24.000000
 -0.019597  0.058791  0.137179     48.000000
  0.156775 -0.117582 -0.039194     48.000000
  0.137179 -0.097985 -0.019597     48.000000
  0.117582 -0.078388 -0.000000     24.000000
  0.000000  0.039194  0.156775     24.000000
  0.176372 -0.137179 -0.019597     48.000000
  0.156775 -0.117582  0.000000     24.000000
  0.195969 -0.156775  0.000000     12.000000
  0.195969 -0.117582 -0.039194     24.000000
  0.176372 -0.097985 -0.019597     24.000000
  0.195969 -0.117582  0.000000     12.000000
 


--------------------------------------------------------------------------------------------------------




 Dimension of arrays:
   k-points           NKPTS =     47   k-points in BZ     NKDIM =     47   number of bands    NBANDS=      8
   number of dos      NEDOS =     11   number of ions     NIONS =      2
   non local maximal  LDIM  =      5   non local SUM 2l+1 LMDIM =     13
   total plane-waves  NPLWV =  46656
   max r-space proj   IRMAX =      1   max aug-charges    IRDMAX= ******
   dimension x,y,z NGX =    36 NGY =   36 NGZ =   36
   dimension x,y,z NGXF=    72 NGYF=   72 NGZF=   72
   support grid    NGXF=   144 NGYF=  144 NGZF=  144
   ions per type =               1   1
   NGX,Y,Z   is equivalent  to a cutoff of  16.59, 16.59, 16.59 a.u.
   NGXF,Y,Z  is equivalent  to a cutoff of  33.17, 33.17, 33.17 a.u.

 SYSTEM =  InN                                     
 POSCAR =  InN                                     

 Startparameter for this run:
   NWRITE =      1    write-flag & timer
   PREC   = accura    normal or accurate (medium, high low for compatibility)
   ISTART =      0    job   : 0-new  1-cont  2-samecut
   ICHARG =      2    charge: 1-file 2-atom 10-const
   ISPIN  =      1    spin polarized calculation?
   LNONCOLLINEAR =      F non collinear calculations
   LSORBIT =      F    spin-orbit coupling
   INIWAV =      1    electr: 0-lowe 1-rand  2-diag
   LASPH  =      T    aspherical Exc in radial PAW
   METAGGA=      F    non-selfconsistent MetaGGA calc.

 Electronic Relaxation 1
   ENCUT  =  800.0 eV  58.80 Ry    7.67 a.u.   8.32  8.32  8.32*2*pi/ulx,y,z
   ENINI  =  800.0     initial cutoff
   ENAUG  =  627.1 eV  augmentation charge cutoff
   NELM   =    100;   NELMIN=  6; NELMDL= -8     # of ELM steps 
   EDIFF  = 0.1E-06   stopping-criterion for ELM
   LREAL  =      F    real-space projection
   NLSPLINE    = F    spline interpolate recip. space projectors
   LCOMPAT=      F    compatible to vasp.4.4
   GGA_COMPAT  = T    GGA compatible to vasp.4.4-vasp.4.6
   LMAXPAW     = -100 max onsite density
   LMAXMIX     =    6 max onsite mixed and CHGCAR
   VOSKOWN=      0    Vosko Wilk Nusair interpolation
   ROPT   =    0.00000   0.00000
 Ionic relaxation
   EDIFFG = -.1E-02   stopping-criterion for IOM
   NSW    =    100    number of steps for IOM
   NBLOCK =      1;   KBLOCK =    100    inner block; outer block 
   IBRION =      2    ionic relax: 0-MD 1-quasi-New 2-CG
   NFREE  =      1    steps in history (QN), initial steepest desc. (CG)
   ISIF   =      3    stress and relaxation
   IWAVPR =     11    prediction:  0-non 1-charg 2-wave 3-comb
   ISYM   =      2    0-nonsym 1-usesym 2-fastsym
   LCORR  =      T    Harris-Foulkes like correction to forces

   POTIM  = 0.5000    time-step for ionic-motion
   TEIN   =    0.0    initial temperature
   TEBEG  =    0.0;   TEEND  =   0.0 temperature during run
   SMASS  =  -3.00    Nose mass-parameter (am)
   estimated Nose-frequenzy (Omega)   =  0.10E-29 period in steps =****** mass=  -0.298E-27a.u.
   SCALEE = 1.0000    scale energy and forces
   NPACO  =    256;   APACO  = 16.0  distance and # of slots for P.C.
   PSTRESS=    0.0 pullay stress

  Mass of Ions in am
   POMASS = 114.82 14.00
  Ionic Valenz
   ZVAL   =   3.00  5.00
  Atomic Wigner-Seitz radii
   RWIGS  =  -1.00 -1.00
  virtual crystal weights 
   VCA    =   1.00  1.00
   NELECT =       8.0000    total number of electrons
   NUPDOWN=      -1.0000    fix difference up-down

 DOS related values:
   EMIN   =  10.00;   EMAX   =-10.00  energy-range for DOS
   EFERMI =   0.00
   ISMEAR =     0;   SIGMA  =   0.01  broadening in eV -4-tet -1-fermi 0-gaus

 Electronic relaxation 2 (details)
   IALGO  =     38    algorithm
   LDIAG  =      T    sub-space diagonalisation (order eigenvalues)
   LSUBROT=      F    optimize rotation matrix (better conditioning)
   TURBO    =      0    0=normal 1=particle mesh
   IRESTART =      0    0=no restart 2=restart with 2 vectors
   NREBOOT  =      0    no. of reboots
   NMIN     =      0    reboot dimension
   EREF     =   0.00    reference energy to select bands
   IMIX   =      4    mixing-type and parameters
     AMIX     =   0.20;   BMIX     =  0.00
     AMIX_MAG =   0.80;   BMIX_MAG =  0.00
     AMIN     =   0.10
     WC   =   100.;   INIMIX=   1;  MIXPRE=   1;  MAXMIX= -45

 Intra band minimization:
   WEIMIN = 0.0010     energy-eigenvalue tresh-hold
   EBREAK =  0.31E-08  absolut break condition
   DEPER  =   0.30     relativ break condition  

   TIME   =   0.40     timestep for ELM

  volume/ion in A,a.u.               =      16.61       112.08
  Fermi-wavevector in a.u.,A,eV,Ry     =   1.018544  1.924768 14.115106  1.037431
  Thomas-Fermi vector in A             =   2.152007
 
 Write flags
   LWAVE        =      F    write WAVECAR
   LDOWNSAMPLE  =      F    k-point downsampling of WAVECAR
   LCHARG       =      F    write CHGCAR
   LVTOT        =      F    write LOCPOT, total local potential
   LVHAR        =      F    write LOCPOT, Hartree potential only
   LELF         =      F    write electronic localiz. function (ELF)
   LORBIT       =     10    0 simple, 1 ext, 2 COOP (PROOUT), +10 PAW based schemes


 Dipole corrections
   LMONO  =      F    monopole corrections only (constant potential shift)
   LDIPOL =      F    correct potential (dipole corrections)
   IDIPOL =      0    1-x, 2-y, 3-z, 4-all directions 
   EPSILON=  1.0000000 bulk dielectric constant

 Exchange correlation treatment:
   GGA     =    --    GGA type
   LEXCH   =     8    internal setting for exchange type
   VOSKOWN=      0    Vosko Wilk Nusair interpolation
   LHFCALC =     F    Hartree Fock is set to
   LHFONE  =     F    Hartree Fock one center treatment
   AEXX    =    0.0000 exact exchange contribution

 Linear response parameters
   LEPSILON=     F    determine dielectric tensor
   LRPA    =     F    only Hartree local field effects (RPA)
   LNABLA  =     F    use nabla operator in PAW spheres
   LVEL    =     F    velocity operator in full k-point grid
   LINTERFAST=   F  fast interpolation
   KINTER  =     0    interpolate to denser k-point grid
   CSHIFT  =0.1000    complex shift for real part using Kramers Kronig
   OMEGAMAX=  -1.0    maximum frequency
   DEG_THRESHOLD= 0.2000000E-02 threshold for treating states as degnerate
   RTIME   =   -0.100 relaxation time in fs
  (WPLASMAI=    0.000 imaginary part of plasma frequency in eV, 0.658/RTIME)
   DFIELD  = 0.0000000 0.0000000 0.0000000 field for delta impulse in time
 
 Orbital magnetization related:
   ORBITALMAG=     F  switch on orbital magnetization
   LCHIMAG   =     F  perturbation theory with respect to B field
   DQ        =  0.001000  dq finite difference perturbation B field
   LLRAUG    =     F  two centre corrections for induced B field



--------------------------------------------------------------------------------------------------------


 conjugate gradient relaxation of ions
 charge density and potential will be updated during run
 non-spin polarized calculation
 Variant of blocked Davidson
 Davidson routine will perform the subspace rotation
 perform sub-space diagonalisation
    after iterative eigenvector-optimisation
 modified Broyden-mixing scheme, WC =      100.0
 initial mixing is a Kerker type mixing with AMIX =  0.2000 and BMIX =      0.0010
 Hartree-type preconditioning will be used
 using additional bands            4
 reciprocal scheme for non local part
 use partial core corrections
 calculate Harris-corrections to forces 
   (improved forces if not selfconsistent)
 use gradient corrections 
 use of overlap-Matrix (Vanderbilt PP)
 Gauss-broadening in eV      SIGMA  =   0.01


--------------------------------------------------------------------------------------------------------


  energy-cutoff  :      800.00
  volume of cell :       33.22
      direct lattice vectors                 reciprocal lattice vectors
     0.000000000  2.551419548  2.551419548    -0.195969338  0.195969338  0.195969338
     2.551419548  0.000000000  2.551419548     0.195969338 -0.195969338  0.195969338
     2.551419548  2.551419548  0.000000000     0.195969338  0.195969338 -0.195969338

  length of vectors
     3.608252129  3.608252129  3.608252129     0.339428850  0.339428850  0.339428850


 
 k-points in units of 2pi/SCALE and weight: InN                                     
   0.00000000  0.00000000  0.00000000       0.001
  -0.01959693  0.01959693  0.01959693       0.008
  -0.03919387  0.03919387  0.03919387       0.008
  -0.05879080  0.05879080  0.05879080       0.008
  -0.07838774  0.07838774  0.07838774       0.008
  -0.09798467  0.09798467  0.09798467       0.004
  -0.00000000  0.00000000  0.03919387       0.006
  -0.01959693  0.01959693  0.05879080       0.024
  -0.03919387  0.03919387  0.07838774       0.024
  -0.05879080  0.05879080  0.09798467       0.024
  -0.07838774  0.07838774  0.11758160       0.024
   0.09798467 -0.09798467 -0.05879080       0.024
   0.07838774 -0.07838774 -0.03919387       0.024
   0.05879080 -0.05879080 -0.01959693       0.024
   0.03919387 -0.03919387 -0.00000000       0.012
  -0.00000000  0.00000000  0.07838774       0.006
  -0.01959693  0.01959693  0.09798467       0.024
  -0.03919387  0.03919387  0.11758160       0.024
  -0.05879080  0.05879080  0.13717854       0.024
   0.11758160 -0.11758160 -0.03919387       0.024
   0.09798467 -0.09798467 -0.01959693       0.024
   0.07838774 -0.07838774 -0.00000000       0.012
  -0.00000000  0.00000000  0.11758160       0.006
  -0.01959693  0.01959693  0.13717854       0.024
  -0.03919387  0.03919387  0.15677547       0.024
   0.13717854 -0.13717854 -0.01959693       0.024
   0.11758160 -0.11758160 -0.00000000       0.012
  -0.00000000  0.00000000  0.15677547       0.006
  -0.01959693  0.01959693  0.17637240       0.024
   0.15677547 -0.15677547 -0.00000000       0.012
  -0.00000000  0.00000000  0.19596934       0.003
   0.00000000  0.03919387  0.07838774       0.024
  -0.01959693  0.05879080  0.09798467       0.048
  -0.03919387  0.07838774  0.11758160       0.048
   0.13717854 -0.09798467 -0.05879080       0.024
  -0.00000000  0.03919387  0.11758160       0.024
  -0.01959693  0.05879080  0.13717854       0.048
   0.15677547 -0.11758160 -0.03919387       0.048
   0.13717854 -0.09798467 -0.01959693       0.048
   0.11758160 -0.07838774 -0.00000000       0.024
  -0.00000000  0.03919387  0.15677547       0.024
   0.17637240 -0.13717854 -0.01959693       0.048
   0.15677547 -0.11758160  0.00000000       0.024
   0.19596934 -0.15677547 -0.00000000       0.012
   0.19596934 -0.11758160 -0.03919387       0.024
   0.17637240 -0.09798467 -0.01959693       0.024
   0.19596934 -0.11758160 -0.00000000       0.012
 
 k-points in reciprocal lattice and weights: InN                                     
   0.00000000  0.00000000  0.00000000       0.001
   0.10000000  0.00000000 -0.00000000       0.008
   0.20000000  0.00000000 -0.00000000       0.008
   0.30000000  0.00000000  0.00000000       0.008
   0.40000000  0.00000000 -0.00000000       0.008
   0.50000000  0.00000000 -0.00000000       0.004
   0.10000000  0.10000000 -0.00000000       0.006
   0.20000000  0.10000000  0.00000000       0.024
   0.30000000  0.10000000 -0.00000000       0.024
   0.40000000  0.10000000 -0.00000000       0.024
   0.50000000  0.10000000 -0.00000000       0.024
  -0.40000000  0.10000000  0.00000000       0.024
  -0.30000000  0.10000000 -0.00000000       0.024
  -0.20000000  0.10000000 -0.00000000       0.024
  -0.10000000  0.10000000  0.00000000       0.012
   0.20000000  0.20000000 -0.00000000       0.006
   0.30000000  0.20000000  0.00000000       0.024
   0.40000000  0.20000000  0.00000000       0.024
   0.50000000  0.20000000  0.00000000       0.024
  -0.40000000  0.20000000 -0.00000000       0.024
  -0.30000000  0.20000000  0.00000000       0.024
  -0.20000000  0.20000000  0.00000000       0.012
   0.30000000  0.30000000 -0.00000000       0.006
   0.40000000  0.30000000  0.00000000       0.024
   0.50000000  0.30000000  0.00000000       0.024
  -0.40000000  0.30000000 -0.00000000       0.024
  -0.30000000  0.30000000 -0.00000000       0.012
   0.40000000  0.40000000 -0.00000000       0.006
   0.50000000  0.40000000 -0.00000000       0.024
  -0.40000000  0.40000000  0.00000000       0.012
   0.50000000  0.50000000 -0.00000000       0.003
   0.30000000  0.20000000  0.10000000       0.024
   0.40000000  0.20000000  0.10000000       0.048
   0.50000000  0.20000000  0.10000000       0.048
  -0.40000000  0.20000000  0.10000000       0.024
   0.40000000  0.30000000  0.10000000       0.024
   0.50000000  0.30000000  0.10000000       0.048
  -0.40000000  0.30000000  0.10000000       0.048
  -0.30000000  0.30000000  0.10000000       0.048
  -0.20000000  0.30000000  0.10000000       0.024
   0.50000000  0.40000000  0.10000000       0.024
  -0.40000000  0.40000000  0.10000000       0.048
  -0.30000000  0.40000000  0.10000000       0.024
  -0.40000000  0.50000000  0.10000000       0.012
  -0.40000000  0.40000000  0.20000000       0.024
  -0.30000000  0.40000000  0.20000000       0.024
  -0.30000000  0.50000000  0.20000000       0.012
 
 position of ions in fractional coordinates (direct lattice) 
   0.00000000  0.00000000  0.00000000
   0.25000000  0.25000000  0.25000000
 
 position of ions in cartesian coordinates  (Angst):
   0.00000000  0.00000000  0.00000000
   1.27570977  1.27570977  1.27570977
 


--------------------------------------------------------------------------------------------------------


 k-point  1 :   0.0000 0.0000 0.0000  plane waves:    1687
 k-point  2 :   0.1000 0.0000-0.0000  plane waves:    1720
 k-point  3 :   0.2000 0.0000-0.0000  plane waves:    1714
 k-point  4 :   0.3000 0.0000 0.0000  plane waves:    1697
 k-point  5 :   0.4000 0.0000-0.0000  plane waves:    1685
 k-point  6 :   0.5000 0.0000-0.0000  plane waves:    1694
 k-point  7 :   0.1000 0.1000-0.0000  plane waves:    1731
 k-point  8 :   0.2000 0.1000 0.0000  plane waves:    1720
 k-point  9 :   0.3000 0.1000-0.0000  plane waves:    1712
 k-point 10 :   0.4000 0.1000-0.0000  plane waves:    1696
 k-point 11 :   0.5000 0.1000-0.0000  plane waves:    1717
 k-point 12 :  -0.4000 0.1000 0.0000  plane waves:    1707
 k-point 13 :  -0.3000 0.1000-0.0000  plane waves:    1704
 k-point 14 :  -0.2000 0.1000-0.0000  plane waves:    1708
 k-point 15 :  -0.1000 0.1000 0.0000  plane waves:    1735
 k-point 16 :   0.2000 0.2000-0.0000  plane waves:    1716
 k-point 17 :   0.3000 0.2000 0.0000  plane waves:    1701
 k-point 18 :   0.4000 0.2000 0.0000  plane waves:    1703
 k-point 19 :   0.5000 0.2000 0.0000  plane waves:    1705
 k-point 20 :  -0.4000 0.2000-0.0000  plane waves:    1711
 k-point 21 :  -0.3000 0.2000 0.0000  plane waves:    1705
 k-point 22 :  -0.2000 0.2000 0.0000  plane waves:    1708
 k-point 23 :   0.3000 0.3000-0.0000  plane waves:    1712
 k-point 24 :   0.4000 0.3000 0.0000  plane waves:    1699
 k-point 25 :   0.5000 0.3000 0.0000  plane waves:    1703
 k-point 26 :  -0.4000 0.3000-0.0000  plane waves:    1702
 k-point 27 :  -0.3000 0.3000-0.0000  plane waves:    1708
 k-point 28 :   0.4000 0.4000-0.0000  plane waves:    1712
 k-point 29 :   0.5000 0.4000-0.0000  plane waves:    1708
 k-point 30 :  -0.4000 0.4000 0.0000  plane waves:    1692
 k-point 31 :   0.5000 0.5000-0.0000  plane waves:    1724
 k-point 32 :   0.3000 0.2000 0.1000  plane waves:    1704
 k-point 33 :   0.4000 0.2000 0.1000  plane waves:    1707
 k-point 34 :   0.5000 0.2000 0.1000  plane waves:    1711
 k-point 35 :  -0.4000 0.2000 0.1000  plane waves:    1714
 k-point 36 :   0.4000 0.3000 0.1000  plane waves:    1695
 k-point 37 :   0.5000 0.3000 0.1000  plane waves:    1699
 k-point 38 :  -0.4000 0.3000 0.1000  plane waves:    1710
 k-point 39 :  -0.3000 0.3000 0.1000  plane waves:    1714
 k-point 40 :  -0.2000 0.3000 0.1000  plane waves:    1712
 k-point 41 :   0.5000 0.4000 0.1000  plane waves:    1701
 k-point 42 :  -0.4000 0.4000 0.1000  plane waves:    1694
 k-point 43 :  -0.3000 0.4000 0.1000  plane waves:    1697
 k-point 44 :  -0.4000 0.5000 0.1000  plane waves:    1706
 k-point 45 :  -0.4000 0.4000 0.2000  plane waves:    1701
 k-point 46 :  -0.3000 0.4000 0.2000  plane waves:    1704
 k-point 47 :  -0.3000 0.5000 0.2000  plane waves:    1708

 maximum and minimum number of plane-waves per node :       359      317

 maximum number of plane-waves:      1735
 maximum index in each direction: 
   IXMAX=    8   IYMAX=    8   IZMAX=    8
   IXMIN=   -8   IYMIN=   -8   IZMIN=   -8


 parallel 3D FFT for wavefunctions:
    minimum data exchange during FFTs selected (reduces bandwidth)
 parallel 3D FFT for charge:
    minimum data exchange during FFTs selected (reduces bandwidth)


 total amount of memory used by VASP MPI-rank0    43476. kBytes
=======================================================================

   base      :      30000. kBytes
   nonl-proj :       3530. kBytes
   fftplans  :       6027. kBytes
   grid      :       2787. kBytes
   one-center:          8. kBytes
   wavefun   :       1124. kBytes
 
     INWAV:  cpu time    0.0000: real time    0.0000
 Broyden mixing: mesh for mixing (old mesh)
   NGX = 17   NGY = 17   NGZ = 17
  (NGX  = 72   NGY  = 72   NGZ  = 72)
  gives a total of   4913 points

 initial charge density was supplied:
 charge density of overlapping atoms calculated
 number of electron       8.0000000 magnetization 
 keeping initial charge density in first step


--------------------------------------------------------------------------------------------------------


 Maximum index for augmentation-charges       130631 (set IRDMAX)


--------------------------------------------------------------------------------------------------------


 First call to EWALD:  gamma=   0.551
 Maximum number of real-space cells 3x 3x 3
 Maximum number of reciprocal cells 3x 3x 3

    FEWALD:  cpu time    0.0007: real time    0.0007


--------------------------------------- Iteration      1(   1)  ---------------------------------------


    POTLOK:  cpu time    0.0135: real time    0.0135
    SETDIJ:  cpu time    0.1719: real time    0.1719
     EDDAV:  cpu time    0.1011: real time    0.1011
       DOS:  cpu time    0.0003: real time    0.0003
    --------------------------------------------
      LOOP:  cpu time    0.2868: real time    0.2868

 eigenvalue-minimisations  :   752
 total energy-change (2. order) : 0.3157715E+02  (-0.4960339E+03)
 number of electron       8.0000000 magnetization 
 augmentation part        8.0000000 magnetization 

 Free energy of the ion-electron system (eV)
  ---------------------------------------------------
  alpha Z        PSCENC =         4.93650165
  Ewald energy   TEWEN  =      -253.89263616
  -Hartree energ DENC   =       -75.46852551
  -exchange      EXHF   =         0.00000000
  -V(xc)+E(xc)   XCENC  =       -36.64671883
  PAW double counting   =       299.15547576     -240.96704793
  entropy T*S    EENTRO =        -0.00017176
  eigenvalues    EBANDS =        16.12377212
  atomic energy  EATOM  =       318.33649992
  Solvation  Ediel_sol  =         0.00000000
  ---------------------------------------------------
  free energy    TOTEN  =        31.57714927 eV

  energy without entropy =       31.57732103  energy(sigma->0) =       31.57723515


--------------------------------------------------------------------------------------------------------




--------------------------------------- Iteration      1(   2)  ---------------------------------------


     EDDAV:  cpu time    0.1380: real time    0.1380
       DOS:  cpu time    0.0001: real time    0.0001
    --------------------------------------------
      LOOP:  cpu time    0.1381: real time    0.1381

 eigenvalue-minimisations  :  1088
 total energy-change (2. order) :-0.4246555E+02  (-0.4098648E+02)
 number of electron       8.0000000 magnetization 
 augmentation part        8.0000000 magnetization 

 Free energy of the ion-electron system (eV)
  ---------------------------------------------------
  alpha Z        PSCENC =         4.93650165
  Ewald energy   TEWEN  =      -253.89263616
  -Hartree energ DENC   =       -75.46852551
  -exchange      EXHF   =         0.00000000
  -V(xc)+E(xc)   XCENC  =       -36.64671883
  PAW double counting   =       299.15547576     -240.96704793
  entropy T*S    EENTRO =        -0.00000000
  eigenvalues    EBANDS =       -26.34194495
  atomic energy  EATOM  =       318.33649992
  Solvation  Ediel_sol  =         0.00000000
  ---------------------------------------------------
  free energy    TOTEN  =       -10.88839604 eV

  energy without entropy =      -10.88839604  energy(sigma->0) =      -10.88839604


--------------------------------------------------------------------------------------------------------




--------------------------------------- Iteration      1(   3)  ---------------------------------------


     EDDAV:  cpu time    0.1186: real time    0.1186
       DOS:  cpu time    0.0001: real time    0.0001
    --------------------------------------------
      LOOP:  cpu time    0.1187: real time    0.1187

 eigenvalue-minimisations  :   888
 total energy-change (2. order) :-0.2010461E+01  (-0.2010461E+01)
 number of electron       8.0000000 magnetization 
 augmentation part        8.0000000 magnetization 

 Free energy of the ion-electron system (eV)
  ---------------------------------------------------
  alpha Z        PSCENC =         4.93650165
  Ewald energy   TEWEN  =      -253.89263616
  -Hartree energ DENC   =       -75.46852551
  -exchange      EXHF   =         0.00000000
  -V(xc)+E(xc)   XCENC  =       -36.64671883
  PAW double counting   =       299.15547576     -240.96704793
  entropy T*S    EENTRO =         0.00000000
  eigenvalues    EBANDS =       -28.35240569
  atomic energy  EATOM  =       318.33649992
  Solvation  Ediel_sol  =         0.00000000
  ---------------------------------------------------
  free energy    TOTEN  =       -12.89885678 eV

  energy without entropy =      -12.89885678  energy(sigma->0) =      -12.89885678


--------------------------------------------------------------------------------------------------------




--------------------------------------- Iteration      1(   4)  ---------------------------------------


     EDDAV:  cpu time    0.1477: real time    0.1477
       DOS:  cpu time    0.0001: real time    0.0001
    --------------------------------------------
      LOOP:  cpu time    0.1478: real time    0.1478

 eigenvalue-minimisations  :  1120
 total energy-change (2. order) :-0.1025410E-01  (-0.1025410E-01)
 number of electron       8.0000000 magnetization 
 augmentation part        8.0000000 magnetization 

 Free energy of the ion-electron system (eV)
  ---------------------------------------------------
  alpha Z        PSCENC =         4.93650165
  Ewald energy   TEWEN  =      -253.89263616
  -Hartree energ DENC   =       -75.46852551
  -exchange      EXHF   =         0.00000000
  -V(xc)+E(xc)   XCENC  =       -36.64671883
  PAW double counting   =       299.15547576     -240.96704793
  entropy T*S    EENTRO =         0.00000000
  eigenvalues    EBANDS =       -28.36265979
  atomic energy  EATOM  =       318.33649992
  Solvation  Ediel_sol  =         0.00000000
  ---------------------------------------------------
  free energy    TOTEN  =       -12.90911088 eV

  energy without entropy =      -12.90911088  energy(sigma->0) =      -12.90911088


--------------------------------------------------------------------------------------------------------




--------------------------------------- Iteration      1(   5)  ---------------------------------------


     EDDAV:  cpu time    0.1189: real time    0.1189
       DOS:  cpu time    0.0001: real time    0.0001
    --------------------------------------------
      LOOP:  cpu time    0.1190: real time    0.1190

 eigenvalue-minimisations  :   896
 total energy-change (2. order) :-0.1909008E-04  (-0.1909008E-04)
 number of electron       8.0000000 magnetization 
 augmentation part        8.0000000 magnetization 

 Free energy of the ion-electron system (eV)
  ---------------------------------------------------
  alpha Z        PSCENC =         4.93650165
  Ewald energy   TEWEN  =      -253.89263616
  -Hartree energ DENC   =       -75.46852551
  -exchange      EXHF   =         0.00000000
  -V(xc)+E(xc)   XCENC  =       -36.64671883
  PAW double counting   =       299.15547576     -240.96704793
  entropy T*S    EENTRO =         0.00000000
  eigenvalues    EBANDS =       -28.36267888
  atomic energy  EATOM  =       318.33649992
  Solvation  Ediel_sol  =         0.00000000
  ---------------------------------------------------
  free energy    TOTEN  =       -12.90912997 eV

  energy without entropy =      -12.90912997  energy(sigma->0) =      -12.90912997


--------------------------------------------------------------------------------------------------------




--------------------------------------- Iteration      1(   6)  ---------------------------------------


     EDDAV:  cpu time    0.1380: real time    0.1380
       DOS:  cpu time    0.0001: real time    0.0001
    --------------------------------------------
      LOOP:  cpu time    0.1381: real time    0.1381

 eigenvalue-minimisations  :  1064
 total energy-change (2. order) :-0.1454339E-07  (-0.1454339E-07)
 number of electron       8.0000000 magnetization 
 augmentation part        8.0000000 magnetization 

 Free energy of the ion-electron system (eV)
  ---------------------------------------------------
  alpha Z        PSCENC =         4.93650165
  Ewald energy   TEWEN  =      -253.89263616
  -Hartree energ DENC   =       -75.46852551
  -exchange      EXHF   =         0.00000000
  -V(xc)+E(xc)   XCENC  =       -36.64671883
  PAW double counting   =       299.15547576     -240.96704793
  entropy T*S    EENTRO =         0.00000000
  eigenvalues    EBANDS =       -28.36267889
  atomic energy  EATOM  =       318.33649992
  Solvation  Ediel_sol  =         0.00000000
  ---------------------------------------------------
  free energy    TOTEN  =       -12.90912999 eV

  energy without entropy =      -12.90912999  energy(sigma->0) =      -12.90912999


--------------------------------------------------------------------------------------------------------




--------------------------------------- Iteration      1(   7)  ---------------------------------------


     EDDAV:  cpu time    0.1290: real time    0.1289
       DOS:  cpu time    0.0001: real time    0.0001
    --------------------------------------------
      LOOP:  cpu time    0.1290: real time    0.1290

 eigenvalue-minimisations  :   976
 total energy-change (2. order) :-0.2637535E-10  (-0.2638799E-10)
 number of electron       8.0000000 magnetization 
 augmentation part        8.0000000 magnetization 

 Free energy of the ion-electron system (eV)
  ---------------------------------------------------
  alpha Z        PSCENC =         4.93650165
  Ewald energy   TEWEN  =      -253.89263616
  -Hartree energ DENC   =       -75.46852551
  -exchange      EXHF   =         0.00000000
  -V(xc)+E(xc)   XCENC  =       -36.64671883
  PAW double counting   =       299.15547576     -240.96704793
  entropy T*S    EENTRO =         0.00000000
  eigenvalues    EBANDS =       -28.36267889
  atomic energy  EATOM  =       318.33649992
  Solvation  Ediel_sol  =         0.00000000
  ---------------------------------------------------
  free energy    TOTEN  =       -12.90912999 eV

  energy without entropy =      -12.90912999  energy(sigma->0) =      -12.90912999


--------------------------------------------------------------------------------------------------------




--------------------------------------- Iteration      1(   8)  ---------------------------------------


     EDDAV:  cpu time    0.0991: real time    0.0991
       DOS:  cpu time    0.0001: real time    0.0001
    CHARGE:  cpu time    0.1132: real time    0.1132
    MIXING:  cpu time    0.0007: real time    0.0007
    --------------------------------------------
      LOOP:  cpu time    0.2131: real time    0.2131

 eigenvalue-minimisations  :   680
 total energy-change (2. order) : 0.0000000E+00  (-0.5548277E-13)
 number of electron       8.0000000 magnetization 
 augmentation part       -0.0809698 magnetization 

 Broyden mixing:
  rms(total) = 0.10095E+01    rms(broyden)= 0.10095E+01
  rms(prec ) = 0.30928E+01
  weight for this iteration     100.00

 Free energy of the ion-electron system (eV)
  ---------------------------------------------------
  alpha Z        PSCENC =         4.93650165
  Ewald energy   TEWEN  =      -253.89263616
  -Hartree energ DENC   =       -75.46852551
  -exchange      EXHF   =         0.00000000
  -V(xc)+E(xc)   XCENC  =       -36.64671883
  PAW double counting   =       299.15547576     -240.96704793
  entropy T*S    EENTRO =         0.00000000
  eigenvalues    EBANDS =       -28.36267889
  atomic energy  EATOM  =       318.33649992
  Solvation  Ediel_sol  =         0.00000000
  ---------------------------------------------------
  free energy    TOTEN  =       -12.90912999 eV

  energy without entropy =      -12.90912999  energy(sigma->0) =      -12.90912999


--------------------------------------------------------------------------------------------------------




--------------------------------------- Iteration      1(   9)  ---------------------------------------


    POTLOK:  cpu time    0.0116: real time    0.0116
    SETDIJ:  cpu time    0.1710: real time    0.1711
     EDDAV:  cpu time    0.1151: real time    0.1151
       DOS:  cpu time    0.0001: real time    0.0001
    CHARGE:  cpu time    0.1139: real time    0.1139
    MIXING:  cpu time    0.0007: real time    0.0007
    --------------------------------------------
      LOOP:  cpu time    0.4125: real time    0.4125

 eigenvalue-minimisations  :   880
 total energy-change (2. order) : 0.1981376E+01  (-0.7040605E+00)
 number of electron       8.0000000 magnetization 
 augmentation part       -0.2938323 magnetization 

 Broyden mixing:
  rms(total) = 0.54121E+00    rms(broyden)= 0.54121E+00
  rms(prec ) = 0.11727E+01
  weight for this iteration     100.00

 eigenvalues of (default mixing * dielectric matrix)
  average eigenvalue GAMMA=   1.4839
  1.4839

 Free energy of the ion-electron system (eV)
  ---------------------------------------------------
  alpha Z        PSCENC =         4.93650165
  Ewald energy   TEWEN  =      -253.89263616
  -Hartree energ DENC   =       -85.93640327
  -exchange      EXHF   =         0.00000000
  -V(xc)+E(xc)   XCENC  =       -35.77285987
  PAW double counting   =       367.04741598     -309.03272821
  entropy T*S    EENTRO =        -0.00000000
  eigenvalues    EBANDS =       -16.61354357
  atomic energy  EATOM  =       318.33649992
  Solvation  Ediel_sol  =         0.00000000
  ---------------------------------------------------
  free energy    TOTEN  =       -10.92775352 eV

  energy without entropy =      -10.92775352  energy(sigma->0) =      -10.92775352


--------------------------------------------------------------------------------------------------------




--------------------------------------- Iteration      1(  10)  ---------------------------------------


    POTLOK:  cpu time    0.0116: real time    0.0116
    SETDIJ:  cpu time    0.1710: real time    0.1710
     EDDAV:  cpu time    0.1204: real time    0.1204
       DOS:  cpu time    0.0002: real time    0.0002
    CHARGE:  cpu time    0.1141: real time    0.1141
    MIXING:  cpu time    0.0007: real time    0.0007
    --------------------------------------------
      LOOP:  cpu time    0.4180: real time    0.4180

 eigenvalue-minimisations  :   904
 total energy-change (2. order) : 0.2489769E+00  (-0.1668225E+00)
 number of electron       8.0000000 magnetization 
 augmentation part       -0.3958648 magnetization 

 Broyden mixing:
  rms(total) = 0.35208E+00    rms(broyden)= 0.35208E+00
  rms(prec ) = 0.50761E+00
  weight for this iteration     100.00

 eigenvalues of (default mixing * dielectric matrix)
  average eigenvalue GAMMA=   2.7670
  1.4904  4.0436

 Free energy of the ion-electron system (eV)
  ---------------------------------------------------
  alpha Z        PSCENC =         4.93650165
  Ewald energy   TEWEN  =      -253.89263616
  -Hartree energ DENC   =       -91.24396491
  -exchange      EXHF   =         0.00000000
  -V(xc)+E(xc)   XCENC  =       -35.30758836
  PAW double counting   =       461.87044112     -404.00869160
  entropy T*S    EENTRO =        -0.00001543
  eigenvalues    EBANDS =       -11.36932287
  atomic energy  EATOM  =       318.33649992
  Solvation  Ediel_sol  =         0.00000000
  ---------------------------------------------------
  free energy    TOTEN  =       -10.67877664 eV

  energy without entropy =      -10.67876122  energy(sigma->0) =      -10.67876893


--------------------------------------------------------------------------------------------------------




--------------------------------------- Iteration      1(  11)  ---------------------------------------


    POTLOK:  cpu time    0.0116: real time    0.0116
    SETDIJ:  cpu time    0.1719: real time    0.1719
     EDDAV:  cpu time    0.1140: real time    0.1140
       DOS:  cpu time    0.0003: real time    0.0003
    CHARGE:  cpu time    0.1130: real time    0.1130
    MIXING:  cpu time    0.0007: real time    0.0007
    --------------------------------------------
      LOOP:  cpu time    0.4114: real time    0.4114

 eigenvalue-minimisations  :   864
 total energy-change (2. order) : 0.5158183E-01  (-0.9176064E-02)
 number of electron       8.0000000 magnetization 
 augmentation part       -0.3935208 magnetization 

 Broyden mixing:
  rms(total) = 0.40935E-01    rms(broyden)= 0.40935E-01
  rms(prec ) = 0.12188E+00
  weight for this iteration     100.00

 eigenvalues of (default mixing * dielectric matrix)
  average eigenvalue GAMMA=   2.1896
  4.2754  0.8432  1.4502

 Free energy of the ion-electron system (eV)
  ---------------------------------------------------
  alpha Z        PSCENC =         4.93650165
  Ewald energy   TEWEN  =      -253.89263616
  -Hartree energ DENC   =       -91.40049785
  -exchange      EXHF   =         0.00000000
  -V(xc)+E(xc)   XCENC  =       -35.19142180
  PAW double counting   =       704.70127571     -647.09367617
  entropy T*S    EENTRO =        -0.00001543
  eigenvalues    EBANDS =       -11.02322470
  atomic energy  EATOM  =       318.33649992
  Solvation  Ediel_sol  =         0.00000000
  ---------------------------------------------------
  free energy    TOTEN  =       -10.62719481 eV

  energy without entropy =      -10.62717938  energy(sigma->0) =      -10.62718710


--------------------------------------------------------------------------------------------------------




--------------------------------------- Iteration      1(  12)  ---------------------------------------


    POTLOK:  cpu time    0.0116: real time    0.0116
    SETDIJ:  cpu time    0.1709: real time    0.1709
     EDDAV:  cpu time    0.1202: real time    0.1202
       DOS:  cpu time    0.0003: real time    0.0003
    CHARGE:  cpu time    0.1137: real time    0.1137
    MIXING:  cpu time    0.0007: real time    0.0007
    --------------------------------------------
      LOOP:  cpu time    0.4173: real time    0.4173

 eigenvalue-minimisations  :   912
 total energy-change (2. order) : 0.3309227E-02  (-0.1284002E-02)
 number of electron       8.0000000 magnetization 
 augmentation part       -0.4024924 magnetization 

 Broyden mixing:
  rms(total) = 0.28137E-01    rms(broyden)= 0.28137E-01
  rms(prec ) = 0.40309E-01
  weight for this iteration     100.00

 eigenvalues of (default mixing * dielectric matrix)
  average eigenvalue GAMMA=   2.3108
  4.4672  1.1323  1.3579  2.2859

 Free energy of the ion-electron system (eV)
  ---------------------------------------------------
  alpha Z        PSCENC =         4.93650165
  Ewald energy   TEWEN  =      -253.89263616
  -Hartree energ DENC   =       -91.97577002
  -exchange      EXHF   =         0.00000000
  -V(xc)+E(xc)   XCENC  =       -35.13633378
  PAW double counting   =       732.05868716     -674.48192117
  entropy T*S    EENTRO =        -0.00001543
  eigenvalues    EBANDS =       -10.46889776
  atomic energy  EATOM  =       318.33649992
  Solvation  Ediel_sol  =         0.00000000
  ---------------------------------------------------
  free energy    TOTEN  =       -10.62388558 eV

  energy without entropy =      -10.62387016  energy(sigma->0) =      -10.62387787


--------------------------------------------------------------------------------------------------------




--------------------------------------- Iteration      1(  13)  ---------------------------------------


    POTLOK:  cpu time    0.0116: real time    0.0116
    SETDIJ:  cpu time    0.1712: real time    0.1712
     EDDAV:  cpu time    0.1175: real time    0.1175
       DOS:  cpu time    0.0003: real time    0.0003
    CHARGE:  cpu time    0.1142: real time    0.1142
    MIXING:  cpu time    0.0007: real time    0.0007
    --------------------------------------------
      LOOP:  cpu time    0.4156: real time    0.4156

 eigenvalue-minimisations  :   872
 total energy-change (2. order) : 0.1013569E-03  (-0.1358896E-03)
 number of electron       8.0000000 magnetization 
 augmentation part       -0.4048639 magnetization 

 Broyden mixing:
  rms(total) = 0.16013E-01    rms(broyden)= 0.16013E-01
  rms(prec ) = 0.19586E-01
  weight for this iteration     100.00

 eigenvalues of (default mixing * dielectric matrix)
  average eigenvalue GAMMA=   2.6402
  5.3191  4.5303  1.3852  1.0360  0.9305

 Free energy of the ion-electron system (eV)
  ---------------------------------------------------
  alpha Z        PSCENC =         4.93650165
  Ewald energy   TEWEN  =      -253.89263616
  -Hartree energ DENC   =       -92.13237685
  -exchange      EXHF   =         0.00000000
  -V(xc)+E(xc)   XCENC  =       -35.12420524
  PAW double counting   =       735.09380516     -677.53055817
  entropy T*S    EENTRO =        -0.00001543
  eigenvalues    EBANDS =       -10.31079912
  atomic energy  EATOM  =       318.33649992
  Solvation  Ediel_sol  =         0.00000000
  ---------------------------------------------------
  free energy    TOTEN  =       -10.62378423 eV

  energy without entropy =      -10.62376880  energy(sigma->0) =      -10.62377651


--------------------------------------------------------------------------------------------------------




--------------------------------------- Iteration      1(  14)  ---------------------------------------


    POTLOK:  cpu time    0.0115: real time    0.0115
    SETDIJ:  cpu time    0.1706: real time    0.1706
     EDDAV:  cpu time    0.1170: real time    0.1170
       DOS:  cpu time    0.0003: real time    0.0003
    CHARGE:  cpu time    0.1138: real time    0.1138
    MIXING:  cpu time    0.0008: real time    0.0008
    --------------------------------------------
      LOOP:  cpu time    0.4139: real time    0.4139

 eigenvalue-minimisations  :   848
 total energy-change (2. order) :-0.1937918E-04  (-0.1222538E-04)
 number of electron       8.0000000 magnetization 
 augmentation part       -0.4046832 magnetization 

 Broyden mixing:
  rms(total) = 0.11772E-02    rms(broyden)= 0.11772E-02
  rms(prec ) = 0.20763E-02
  weight for this iteration     100.00

 eigenvalues of (default mixing * dielectric matrix)
  average eigenvalue GAMMA=   2.4205
  5.0390  4.3667  1.7096  1.3653  0.9843  1.0584

 Free energy of the ion-electron system (eV)
  ---------------------------------------------------
  alpha Z        PSCENC =         4.93650165
  Ewald energy   TEWEN  =      -253.89263616
  -Hartree energ DENC   =       -92.18488124
  -exchange      EXHF   =         0.00000000
  -V(xc)+E(xc)   XCENC  =       -35.11950991
  PAW double counting   =       740.25708667     -682.71162866
  entropy T*S    EENTRO =        -0.00001543
  eigenvalues    EBANDS =       -10.24522045
  atomic energy  EATOM  =       318.33649992
  Solvation  Ediel_sol  =         0.00000000
  ---------------------------------------------------
  free energy    TOTEN  =       -10.62380360 eV

  energy without entropy =      -10.62378818  energy(sigma->0) =      -10.62379589


--------------------------------------------------------------------------------------------------------




--------------------------------------- Iteration      1(  15)  ---------------------------------------


    POTLOK:  cpu time    0.0117: real time    0.0117
    SETDIJ:  cpu time    0.1714: real time    0.1714
     EDDAV:  cpu time    0.1237: real time    0.1237
       DOS:  cpu time    0.0002: real time    0.0002
    CHARGE:  cpu time    0.1145: real time    0.1145
    MIXING:  cpu time    0.0008: real time    0.0008
    --------------------------------------------
      LOOP:  cpu time    0.4223: real time    0.4223

 eigenvalue-minimisations  :   936
 total energy-change (2. order) : 0.2844815E-05  (-0.6937483E-06)
 number of electron       8.0000000 magnetization 
 augmentation part       -0.4049174 magnetization 

 Broyden mixing:
  rms(total) = 0.18256E-02    rms(broyden)= 0.18256E-02
  rms(prec ) = 0.24914E-02
  weight for this iteration     100.00

 eigenvalues of (default mixing * dielectric matrix)
  average eigenvalue GAMMA=   2.6770
  5.2924  4.8852  4.1816  1.3858  1.0434  0.9986  0.9522

 Free energy of the ion-electron system (eV)
  ---------------------------------------------------
  alpha Z        PSCENC =         4.93650165
  Ewald energy   TEWEN  =      -253.89263616
  -Hartree energ DENC   =       -92.19255864
  -exchange      EXHF   =         0.00000000
  -V(xc)+E(xc)   XCENC  =       -35.11834040
  PAW double counting   =       740.73872607     -683.19220316
  entropy T*S    EENTRO =        -0.00001543
  eigenvalues    EBANDS =       -10.23977462
  atomic energy  EATOM  =       318.33649992
  Solvation  Ediel_sol  =         0.00000000
  ---------------------------------------------------
  free energy    TOTEN  =       -10.62380076 eV

  energy without entropy =      -10.62378533  energy(sigma->0) =      -10.62379305


--------------------------------------------------------------------------------------------------------




--------------------------------------- Iteration      1(  16)  ---------------------------------------


    POTLOK:  cpu time    0.0115: real time    0.0115
    SETDIJ:  cpu time    0.1711: real time    0.1711
     EDDAV:  cpu time    0.1284: real time    0.1284
       DOS:  cpu time    0.0003: real time    0.0003
    CHARGE:  cpu time    0.1136: real time    0.1136
    MIXING:  cpu time    0.0008: real time    0.0008
    --------------------------------------------
      LOOP:  cpu time    0.4257: real time    0.4257

 eigenvalue-minimisations  :  1000
 total energy-change (2. order) : 0.1174686E-05  (-0.3889864E-06)
 number of electron       8.0000000 magnetization 
 augmentation part       -0.4048050 magnetization 

 Broyden mixing:
  rms(total) = 0.16164E-03    rms(broyden)= 0.16164E-03
  rms(prec ) = 0.33339E-03
  weight for this iteration     100.00

 eigenvalues of (default mixing * dielectric matrix)
  average eigenvalue GAMMA=   2.4862
  5.2611  4.9047  4.2482  1.3858  1.1346  0.9721  0.9721  1.0109

 Free energy of the ion-electron system (eV)
  ---------------------------------------------------
  alpha Z        PSCENC =         4.93650165
  Ewald energy   TEWEN  =      -253.89263616
  -Hartree energ DENC   =       -92.18578599
  -exchange      EXHF   =         0.00000000
  -V(xc)+E(xc)   XCENC  =       -35.11888036
  PAW double counting   =       739.89167667     -682.34455717
  entropy T*S    EENTRO =        -0.00001543
  eigenvalues    EBANDS =       -10.24660272
  atomic energy  EATOM  =       318.33649992
  Solvation  Ediel_sol  =         0.00000000
  ---------------------------------------------------
  free energy    TOTEN  =       -10.62379959 eV

  energy without entropy =      -10.62378416  energy(sigma->0) =      -10.62379187


--------------------------------------------------------------------------------------------------------




--------------------------------------- Iteration      1(  17)  ---------------------------------------


    POTLOK:  cpu time    0.0116: real time    0.0116
    SETDIJ:  cpu time    0.1721: real time    0.1721
     EDDAV:  cpu time    0.0970: real time    0.0970
       DOS:  cpu time    0.0002: real time    0.0002
    --------------------------------------------
      LOOP:  cpu time    0.2809: real time    0.2809

 eigenvalue-minimisations  :   696
 total energy-change (2. order) : 0.1697049E-07  (-0.1556159E-07)
 number of electron       8.0000000 magnetization 
 augmentation part       -0.4048050 magnetization 

 Free energy of the ion-electron system (eV)
  ---------------------------------------------------
  alpha Z        PSCENC =         4.93650165
  Ewald energy   TEWEN  =      -253.89263616
  -Hartree energ DENC   =       -92.18511729
  -exchange      EXHF   =         0.00000000
  -V(xc)+E(xc)   XCENC  =       -35.11892204
  PAW double counting   =       739.90260642     -682.35547512
  entropy T*S    EENTRO =        -0.00001543
  eigenvalues    EBANDS =       -10.24724153
  atomic energy  EATOM  =       318.33649992
  Solvation  Ediel_sol  =         0.00000000
  ---------------------------------------------------
  free energy    TOTEN  =       -10.62379957 eV

  energy without entropy =      -10.62378414  energy(sigma->0) =      -10.62379186


--------------------------------------------------------------------------------------------------------




 average (electrostatic) potential at core
  the test charge radii are     1.4837  0.7089
  (the norm of the test charge is              1.0000)
       1 -37.4087       2 -63.6363
 
 
 
 E-fermi :   3.7490     XC(G=0):  -9.9893     alpha+bet :-10.8082


 k-point     1 :       0.0000    0.0000    0.0000
  band No.  band energies     occupation 
      1     -10.3170      2.00000
      2       3.1885      2.00000
      3       3.7460      1.33337
      4       3.7460      1.33333
      5       3.7460      1.33330
      6      12.8701      0.00000
      7      12.8701      0.00000
      8      12.8701      0.00000

 k-point     2 :       0.1000    0.0000   -0.0000
  band No.  band energies     occupation 
      1     -10.2107      2.00000
      2       2.2759      2.00000
      3       3.6657      2.00000
      4       3.6657      2.00000
      5       4.5186      0.00000
      6      12.2421      0.00000
      7      12.9711      0.00000
      8      12.9711      0.00000

 k-point     3 :       0.2000    0.0000   -0.0000
  band No.  band energies     occupation 
      1      -9.9089      2.00000
      2       1.0090      2.00000
      3       3.4648      2.00000
      4       3.4648      2.00000
      5       5.3882      0.00000
      6      11.1966      0.00000
      7      13.1258      0.00000
      8      13.1258      0.00000

 k-point     4 :       0.3000    0.0000    0.0000
  band No.  band energies     occupation 
      1      -9.4747      2.00000
      2      -0.2657      2.00000
      3       3.2320      2.00000
      4       3.2320      2.00000
      5       6.0829      0.00000
      6      10.4588      0.00000
      7      13.0928      0.00000
      8      13.0928      0.00000

 k-point     5 :       0.4000    0.0000   -0.0000
  band No.  band energies     occupation 
      1      -9.0508      2.00000
      2      -1.2695      2.00000
      3       3.0539      2.00000
      4       3.0539      2.00000
      5       6.4962      0.00000
      6      10.1395      0.00000
      7      12.9345      0.00000
      8      12.9345      0.00000

 k-point     6 :       0.5000    0.0000   -0.0000
  band No.  band energies     occupation 
      1      -8.8640      2.00000
      2      -1.6636      2.00000
      3       2.9881      2.00000
      4       2.9881      2.00000
      5       6.6211      0.00000
      6      10.0750      0.00000
      7      12.8558      0.00000
      8      12.8558      0.00000

 k-point     7 :       0.1000    0.1000   -0.0000
  band No.  band energies     occupation 
      1     -10.1755      2.00000
      2       2.1985      2.00000
      3       3.5212      2.00000
      4       3.5212      2.00000
      5       4.7884      0.00000
      6      12.1077      0.00000
      7      12.9795      0.00000
      8      12.9795      0.00000

 k-point     8 :       0.2000    0.1000    0.0000
  band No.  band energies     occupation 
      1      -9.9391      2.00000
      2       1.3000      2.00000
      3       3.2721      2.00000
      4       3.3239      2.00000
      5       5.5108      0.00000
      6      11.3130      0.00000
      7      12.9656      0.00000
      8      13.1311      0.00000

 k-point     9 :       0.3000    0.1000   -0.0000
  band No.  band energies     occupation 
      1      -9.5468      2.00000
      2       0.1359      2.00000
      3       3.0241      2.00000
      4       3.0534      2.00000
      5       6.2569      0.00000
      6      10.5865      0.00000
      7      12.6409      0.00000
      8      13.2042      0.00000

 k-point    10 :       0.4000    0.1000   -0.0000
  band No.  band energies     occupation 
      1      -9.1096      2.00000
      2      -0.9220      2.00000
      3       2.7575      2.00000
      4       2.8675      2.00000
      5       6.8284      0.00000
      6      10.1297      0.00000
      7      12.4143      0.00000
      8      13.1216      0.00000

 k-point    11 :       0.5000    0.1000   -0.0000
  band No.  band energies     occupation 
      1      -8.8279      2.00000
      2      -1.5188      2.00000
      3       2.5363      2.00000
      4       2.8509      2.00000
      5       7.1045      0.00000
      6       9.9424      0.00000
      7      12.3527      0.00000
      8      13.0234      0.00000

 k-point    12 :      -0.4000    0.1000    0.0000
  band No.  band energies     occupation 
      1      -8.8905      2.00000
      2      -1.3908      2.00000
      3       2.4587      2.00000
      4       2.9771      2.00000
      5       7.0678      0.00000
      6       9.9914      0.00000
      7      12.2984      0.00000
      8      13.0490      0.00000

 k-point    13 :      -0.3000    0.1000   -0.0000
  band No.  band energies     occupation 
      1      -9.2507      2.00000
      2      -0.6046      2.00000
      3       2.5596      2.00000
      4       3.2053      2.00000
      5       6.6935      0.00000
      6      10.3067      0.00000
      7      12.2807      0.00000
      8      13.2115      0.00000

 k-point    14 :      -0.2000    0.1000   -0.0000
  band No.  band energies     occupation 
      1      -9.6908      2.00000
      2       0.5051      2.00000
      3       2.8427      2.00000
      4       3.4583      2.00000
      5       6.0113      0.00000
      6      10.9158      0.00000
      7      12.4406      0.00000
      8      13.3276      0.00000

 k-point    15 :      -0.1000    0.1000    0.0000
  band No.  band energies     occupation 
      1     -10.0391      2.00000
      2       1.5731      2.00000
      3       3.2712      2.00000
      4       3.6391      2.00000
      5       5.1834      0.00000
      6      11.6747      0.00000
      7      12.7706      0.00000
      8      13.1718      0.00000

 k-point    16 :       0.2000    0.2000   -0.0000
  band No.  band energies     occupation 
      1      -9.7761      2.00000
      2       1.0700      2.00000
      3       2.9686      2.00000
      4       2.9686      2.00000
      5       5.9754      0.00000
      6      10.7552      0.00000
      7      13.3291      0.00000
      8      13.3291      0.00000

 k-point    17 :       0.3000    0.2000    0.0000
  band No.  band energies     occupation 
      1      -9.4509      2.00000
      2       0.3301      2.00000
      3       2.6162      2.00000
      4       2.6803      2.00000
      5       6.5719      0.00000
      6      10.2256      0.00000
      7      12.6584      0.00000
      8      13.5231      0.00000

 k-point    18 :       0.4000    0.2000    0.0000
  band No.  band energies     occupation 
      1      -9.0481      2.00000
      2      -0.5333      2.00000
      3       2.1564      2.00000
      4       2.5097      2.00000
      5       7.2397      0.00000
      6       9.9203      0.00000
      7      12.0202      0.00000
      8      13.5533      0.00000

 k-point    19 :       0.5000    0.2000    0.0000
  band No.  band energies     occupation 
      1      -8.7277      2.00000
      2      -1.1552      2.00000
      3       1.7267      2.00000
      4       2.5092      2.00000
      5       7.8090      0.00000
      6       9.6516      0.00000
      7      11.8702      0.00000
      8      13.4612      0.00000

 k-point    20 :      -0.4000    0.2000   -0.0000
  band No.  band energies     occupation 
      1      -8.6774      2.00000
      2      -1.2454      2.00000
      3       1.4809      2.00000
      4       2.6770      2.00000
      5       8.0806      0.00000
      6       9.5559      0.00000
      7      11.7018      0.00000
      8      13.3920      0.00000

 k-point    21 :      -0.3000    0.2000    0.0000
  band No.  band energies     occupation 
      1      -8.9322      2.00000
      2      -0.7895      2.00000
      3       1.5421      2.00000
      4       2.9596      2.00000
      5       7.7384      0.00000
      6      10.0069      0.00000
      7      11.3750      0.00000
      8      13.4247      0.00000

 k-point    22 :      -0.2000    0.2000    0.0000
  band No.  band energies     occupation 
      1      -9.3299      2.00000
      2      -0.1078      2.00000
      3       2.0246      2.00000
      4       3.2593      2.00000
      5       6.9328      0.00000
      6      10.6806      0.00000
      7      11.4393      0.00000
      8      13.4715      0.00000

 k-point    23 :       0.3000    0.3000   -0.0000
  band No.  band energies     occupation 
      1      -9.2073      2.00000
      2       0.0518      2.00000
      3       2.3446      2.00000
      4       2.3446      2.00000
      5       6.7369      0.00000
      6       9.7161      0.00000
      7      12.9925      0.00000
      8      13.8760      0.00000

 k-point    24 :       0.4000    0.3000    0.0000
  band No.  band energies     occupation 
      1      -8.8806      2.00000
      2      -0.4650      2.00000
      3       1.9090      2.00000
      4       2.1352      2.00000
      5       7.0710      0.00000
      6       9.5531      0.00000
      7      12.4095      0.00000
      8      14.0602      0.00000

 k-point    25 :       0.5000    0.3000    0.0000
  band No.  band energies     occupation 
      1      -8.5913      2.00000
      2      -0.8642      2.00000
      3       1.2653      2.00000
      4       2.1162      2.00000
      5       7.6489      0.00000
      6       9.5691      0.00000
      7      12.0910      0.00000
      8      14.0114      0.00000

 k-point    26 :      -0.4000    0.3000   -0.0000
  band No.  band energies     occupation 
      1      -8.4866      2.00000
      2      -0.9650      2.00000
      3       0.7677      2.00000
      4       2.2921      2.00000
      5       8.3145      0.00000
      6       9.4241      0.00000
      7      11.8224      0.00000
      8      13.8300      0.00000

 k-point    27 :      -0.3000    0.3000   -0.0000
  band No.  band energies     occupation 
      1      -8.6291      2.00000
      2      -0.8757      2.00000
      3       0.8123      2.00000
      4       2.6090      2.00000
      5       8.6239      0.00000
      6       9.3364      0.00000
      7      11.3825      0.00000
      8      13.6271      0.00000

 k-point    28 :       0.4000    0.4000   -0.0000
  band No.  band energies     occupation 
      1      -8.6585      2.00000
      2      -0.7409      2.00000
      3       1.8785      2.00000
      4       1.8785      2.00000
      5       6.7748      0.00000
      6       9.3716      0.00000
      7      12.6149      0.00000
      8      14.4216      0.00000

 k-point    29 :       0.5000    0.4000   -0.0000
  band No.  band energies     occupation 
      1      -8.4687      2.00000
      2      -0.9502      2.00000
      3       1.4717      2.00000
      4       1.8181      2.00000
      5       6.9954      0.00000
      6       9.4328      0.00000
      7      12.5450      0.00000
      8      14.4761      0.00000

 k-point    30 :      -0.4000    0.4000    0.0000
  band No.  band energies     occupation 
      1      -8.4011      2.00000
      2      -0.9245      2.00000
      3       0.8592      2.00000
      4       1.9709      2.00000
      5       7.6329      0.00000
      6       9.5665      0.00000
      7      12.3512      0.00000
      8      14.2357      0.00000

 k-point    31 :       0.5000    0.5000   -0.0000
  band No.  band energies     occupation 
      1      -8.4185      2.00000
      2      -1.0600      2.00000
      3       1.7082      2.00000
      4       1.7082      2.00000
      5       6.6521      0.00000
      6       9.3357      0.00000
      7      12.6263      0.00000
      8      14.6609      0.00000

 k-point    32 :       0.3000    0.2000    0.1000
  band No.  band energies     occupation 
      1      -9.6567      2.00000
      2       0.6232      2.00000
      3       2.6760      2.00000
      4       3.2179      2.00000
      5       6.2137      0.00000
      6      10.7937      0.00000
      7      12.3778      0.00000
      8      13.4263      0.00000

 k-point    33 :       0.4000    0.2000    0.1000
  band No.  band energies     occupation 
      1      -9.2550      2.00000
      2      -0.2594      2.00000
      3       2.1748      2.00000
      4       2.9843      2.00000
      5       6.9978      0.00000
      6      10.3338      0.00000
      7      11.7936      0.00000
      8      13.4653      0.00000

 k-point    34 :       0.5000    0.2000    0.1000
  band No.  band energies     occupation 
      1      -8.8697      2.00000
      2      -1.0477      2.00000
      3       1.9085      2.00000
      4       2.7375      2.00000
      5       7.6149      0.00000
      6       9.8753      0.00000
      7      11.7432      0.00000
      8      13.3306      0.00000

 k-point    35 :      -0.4000    0.2000    0.1000
  band No.  band energies     occupation 
      1      -8.7026      2.00000
      2      -1.3706      2.00000
      3       1.8329      2.00000
      4       2.6317      2.00000
      5       7.8572      0.00000
      6       9.6615      0.00000
      7      11.8386      0.00000
      8      13.2571      0.00000

 k-point    36 :       0.4000    0.3000    0.1000
  band No.  band energies     occupation 
      1      -9.1201      2.00000
      2      -0.1956      2.00000
      3       2.0325      2.00000
      4       2.4924      2.00000
      5       7.1192      0.00000
      6       9.8888      0.00000
      7      12.0930      0.00000
      8      13.7606      0.00000

 k-point    37 :       0.5000    0.3000    0.1000
  band No.  band energies     occupation 
      1      -8.7674      2.00000
      2      -0.7327      2.00000
      3       1.5168      2.00000
      4       2.2461      2.00000
      5       7.8151      0.00000
      6       9.7232      0.00000
      7      11.6725      0.00000
      8      13.6458      0.00000

 k-point    38 :      -0.4000    0.3000    0.1000
  band No.  band energies     occupation 
      1      -8.5536      2.00000
      2      -1.0421      2.00000
      3       1.1403      2.00000
      4       2.1909      2.00000
      5       8.4728      0.00000
      6       9.4359      0.00000
      7      11.6184      0.00000
      8      13.4578      0.00000

 k-point    39 :      -0.3000    0.3000    0.1000
  band No.  band energies     occupation 
      1      -8.6082      2.00000
      2      -0.9652      2.00000
      3       1.0336      2.00000
      4       2.3808      2.00000
      5       8.6576      0.00000
      6       9.3905      0.00000
      7      11.3711      0.00000
      8      13.4689      0.00000

 k-point    40 :      -0.2000    0.3000    0.1000
  band No.  band energies     occupation 
      1      -8.8949      2.00000
      2      -0.6332      2.00000
      3       1.3815      2.00000
      4       2.7041      2.00000
      5       7.9258      0.00000
      6       9.9928      0.00000
      7      11.1919      0.00000
      8      13.5499      0.00000

 k-point    41 :       0.5000    0.4000    0.1000
  band No.  band energies     occupation 
      1      -8.6142      2.00000
      2      -0.7648      2.00000
      3       1.5807      2.00000
      4       1.8218      2.00000
      5       7.3532      0.00000
      6       9.5335      0.00000
      7      12.2646      0.00000
      8      13.8650      0.00000

 k-point    42 :      -0.4000    0.4000    0.1000
  band No.  band energies     occupation 
      1      -8.4339      2.00000
      2      -0.8813      2.00000
      3       1.0155      2.00000
      4       1.7518      2.00000
      5       7.9705      0.00000
      6       9.6260      0.00000
      7      12.1448      0.00000
      8      13.3550      0.00000

 k-point    43 :      -0.3000    0.4000    0.1000
  band No.  band energies     occupation 
      1      -8.4326      2.00000
      2      -0.8572      2.00000
      3       0.6556      2.00000
      4       1.9911      2.00000
      5       8.6682      0.00000
      6       9.4501      0.00000
      7      11.6887      0.00000
      8      13.3482      0.00000

 k-point    44 :      -0.4000    0.5000    0.1000
  band No.  band energies     occupation 
      1      -8.3978      2.00000
      2      -0.9767      2.00000
      3       1.4583      2.00000
      4       1.5100      2.00000
      5       7.2841      0.00000
      6       9.5149      0.00000
      7      12.5922      0.00000
      8      13.6901      0.00000

 k-point    45 :      -0.4000    0.4000    0.2000
  band No.  band energies     occupation 
      1      -8.5154      2.00000
      2      -0.8207      2.00000
      3       1.0127      2.00000
      4       1.8332      2.00000
      5       8.5764      0.00000
      6       9.6426      0.00000
      7      11.4128      0.00000
      8      13.2778      0.00000

 k-point    46 :      -0.3000    0.4000    0.2000
  band No.  band energies     occupation 
      1      -8.4120      2.00000
      2      -0.8415      2.00000
      3       0.8422      2.00000
      4       1.6216      2.00000
      5       8.9950      0.00000
      6       9.5368      0.00000
      7      11.4650      0.00000
      8      12.9573      0.00000

 k-point    47 :      -0.3000    0.5000    0.2000
  band No.  band energies     occupation 
      1      -8.3637      2.00000
      2      -0.8154      2.00000
      3       1.1135      2.00000
      4       1.1748      2.00000
      5       8.5837      0.00000
      6       9.7817      0.00000
      7      12.0139      0.00000
      8      12.5401      0.00000


--------------------------------------------------------------------------------------------------------


 soft charge-density along one line, spin component           1
         0         1         2         3         4         5         6         7         8         9
 total charge-density along one line
 
 pseudopotential strength for first ion, spin component:           1
 20.910  25.012  -0.000  -0.000  -0.000  -0.000  -0.000  -0.000
 25.012  29.932  -0.000  -0.000  -0.000  -0.000  -0.000  -0.000
 -0.000  -0.000   3.867   0.000   0.000   6.641   0.000   0.000
 -0.000  -0.000   0.000   3.867   0.000   0.000   6.641   0.000
 -0.000  -0.000   0.000   0.000   3.867   0.000   0.000   6.641
 -0.000  -0.000   6.641   0.000   0.000  11.464   0.000   0.000
 -0.000  -0.000   0.000   6.641   0.000   0.000  11.464   0.000
 -0.000  -0.000   0.000   0.000   6.641   0.000   0.000  11.464
  0.000   0.000  -0.000  -0.000  -0.000  -0.000  -0.002  -0.000
  0.000   0.000  -0.000  -0.000  -0.000  -0.000  -0.000  -0.002
 -0.000  -0.000  -0.000   0.000  -0.000  -0.000   0.000  -0.000
  0.000   0.000  -0.000  -0.000  -0.000  -0.002  -0.000  -0.000
 -0.000  -0.000  -0.000  -0.000   0.000  -0.000  -0.000   0.000
 total augmentation occupancy for first ion, spin component:           1
  8.964  -5.173  -0.000  -0.000   0.000   0.000   0.000   0.000   0.000   0.000   0.000   0.000  -0.000
 -5.173   3.224  -0.000  -0.000  -0.000   0.000  -0.000   0.000   0.000   0.000   0.000   0.000   0.000
 -0.000  -0.000   3.754  -0.000   0.000  -1.198   0.000   0.000   0.000  -0.000  -0.000   0.566   0.000
 -0.000   0.000   0.000   3.754  -0.000   0.000  -1.198   0.000   0.566  -0.000   0.000  -0.000   0.000
  0.000  -0.000   0.000  -0.000   3.754   0.000   0.000  -1.198  -0.000   0.566   0.000   0.000   0.000
  0.000   0.000  -1.198   0.000   0.000   0.401   0.000   0.000  -0.000  -0.000   0.000  -0.175  -0.000
  0.000  -0.000   0.000  -1.198   0.000   0.000   0.401   0.000  -0.175   0.000   0.000   0.000   0.000
  0.000   0.000  -0.000   0.000  -1.198   0.000   0.000   0.401   0.000  -0.175   0.000   0.000  -0.000
  0.000   0.000   0.000   0.566  -0.000  -0.000  -0.175   0.000   0.187  -0.000   0.000   0.000   0.000
  0.000   0.000  -0.000   0.000   0.566  -0.000   0.000  -0.175  -0.000   0.187   0.000  -0.000   0.000
  0.000   0.000   0.000   0.000  -0.000  -0.000  -0.000   0.000   0.000  -0.000   0.065  -0.000  -0.000
  0.000   0.000   0.566   0.000  -0.000  -0.175   0.000   0.000   0.000  -0.000   0.000   0.187  -0.000
 -0.000   0.000   0.000  -0.000   0.000   0.000  -0.000   0.000  -0.000   0.000  -0.000   0.000   0.065


------------------------ aborting loop because EDIFF is reached ----------------------------------------


 


 total charge     
 
# of ion       s       p       d       tot
------------------------------------------
    1        1.113   1.444   0.395   2.951
    2        1.250   2.318   0.000   3.568
--------------------------------------------------
tot          2.363   3.762   0.395   6.519
 
    CHARGE:  cpu time    0.1144: real time    0.1144
    FORLOC:  cpu time    0.0007: real time    0.0007
    FORNL :  cpu time    0.5672: real time    0.5672
    STRESS:  cpu time    1.8173: real time    1.8173
    FORCOR:  cpu time    0.0120: real time    0.0120
    FORHAR:  cpu time    0.0026: real time    0.0026
    MIXING:  cpu time    0.0006: real time    0.0006
    OFIELD:  cpu time    0.0000: real time    0.0000

  FORCE on cell =-STRESS in cart. coord.  units (eV):
  Direction    XX          YY          ZZ          XY          YZ          ZX
  --------------------------------------------------------------------------------------
  Alpha Z     4.93650     4.93650     4.93650
  Ewald     -84.63091   -84.63091   -84.63091     0.00000    -0.00000     0.00000
  Hartree    30.72804    30.72804    30.72804     0.00000     0.00000     0.00000
  E(xc)     -33.94054   -33.94054   -33.94054     0.00000     0.00000     0.00000
  Local     -42.55683   -42.55683   -42.55683    -0.00000    -0.00000    -0.00000
  n-local    20.52969    20.70141    21.46982    -1.28586     1.06656    -0.58686
  augment    -5.18672    -5.18672    -5.18672     0.00000     0.00000     0.00000
  Kinetic   112.13766   111.28834   105.82334     5.15544    -3.37584     2.01740
  Fock        0.00000     0.00000     0.00000     0.00000     0.00000     0.00000
  -------------------------------------------------------------------------------------
  Total      -0.00038    -0.00038    -0.00038     0.00000     0.00000     0.00000
  in kB      -0.01820    -0.01820    -0.01820     0.00000     0.00000     0.00000
  external pressure =       -0.02 kB  Pullay stress =        0.00 kB


 VOLUME and BASIS-vectors are now :
 -----------------------------------------------------------------------------
  energy-cutoff  :      800.00
  volume of cell :       33.22
      direct lattice vectors                 reciprocal lattice vectors
     0.000000000  2.551419548  2.551419548    -0.195969338  0.195969338  0.195969338
     2.551419548  0.000000000  2.551419548     0.195969338 -0.195969338  0.195969338
     2.551419548  2.551419548  0.000000000     0.195969338  0.195969338 -0.195969338

  length of vectors
     3.608252129  3.608252129  3.608252129     0.339428850  0.339428850  0.339428850


 FORCES acting on ions
    electron-ion (+dipol)            ewald-force                    non-local-force                 convergence-correction
 -----------------------------------------------------------------------------------------------
   -.110E-08 -.110E-08 -.107E-08   0.403E-14 -.266E-14 0.174E-14   0.169E-16 -.108E-16 0.203E-16   -.156E-09 -.156E-09 -.156E-09
   -.191E-08 -.191E-08 -.172E-08   -.408E-14 0.286E-14 -.150E-14   0.209E-16 0.209E-16 0.277E-16   -.113E-09 -.113E-09 -.113E-09
 -----------------------------------------------------------------------------------------------
   -.301E-08 -.301E-08 -.279E-08   -.496E-16 0.201E-15 0.235E-15   0.378E-16 0.101E-16 0.480E-16   -.269E-09 -.269E-09 -.269E-09
 
 
 POSITION                                       TOTAL-FORCE (eV/Angst)
 -----------------------------------------------------------------------------------
      0.00000      0.00000      0.00000        -0.000000     -0.000000     -0.000000
      1.27571      1.27571      1.27571         0.000000      0.000000      0.000000
 -----------------------------------------------------------------------------------
    total drift:                               -0.000000     -0.000000     -0.000000


--------------------------------------------------------------------------------------------------------



  FREE ENERGIE OF THE ION-ELECTRON SYSTEM (eV)
  ---------------------------------------------------
  free  energy   TOTEN  =       -10.62379957 eV

  energy  without entropy=      -10.62378414  energy(sigma->0) =      -10.62379186
 


--------------------------------------------------------------------------------------------------------


    POTLOK:  cpu time    0.1825: real time    0.1825


--------------------------------------------------------------------------------------------------------




--------------------------------------------------------------------------------------------------------


  
 reached required accuracy - stopping structural energy minimisation
     LOOP+:  cpu time    7.8020: real time    7.8021
    4ORBIT:  cpu time    0.0000: real time    0.0000
 


 total charge     
 
# of ion       s       p       d       tot
------------------------------------------
    1        1.113   1.444   0.395   2.951
    2        1.250   2.318   0.000   3.568
--------------------------------------------------
tot          2.363   3.762   0.395   6.519
 

 total amount of memory used by VASP MPI-rank0    43476. kBytes
=======================================================================

   base      :      30000. kBytes
   nonl-proj :       3530. kBytes
   fftplans  :       6027. kBytes
   grid      :       2787. kBytes
   one-center:          8. kBytes
   wavefun   :       1124. kBytes
 
  
  
 General timing and accounting informations for this job:
 ========================================================
  
                  Total CPU time used (sec):        8.505
                            User time (sec):        7.425
                          System time (sec):        1.080
                         Elapsed time (sec):        8.518
  
                   Maximum memory used (kb):      137076.
                   Average memory used (kb):           0.
  
                          Minor page faults:       776814
                          Major page faults:            0
                 Voluntary context switches:           42
