PROCAR new format
# of k-points:   47         # of bands:    8         # of ions:    2

 k-point     1 :    0.00000000 0.00000000 0.00000000     weight = 0.00100000

band     1 # energy  -10.31698379 # occ.  2.00000000
 
ion      s      p      d    tot
    1  0.339  0.000  0.000  0.339
    2  0.484  0.000  0.000  0.484
tot    0.823  0.000  0.000  0.823
 
band     2 # energy    3.18850395 # occ.  2.00000000
 
ion      s      p      d    tot
    1  0.378  0.000  0.000  0.378
    2  0.267  0.000  0.000  0.267
tot    0.645  0.000  0.000  0.645
 
band     3 # energy    3.74595374 # occ.  1.33337072
 
ion      s      p      d    tot
    1  0.000  0.063  0.163  0.226
    2  0.000  0.595  0.000  0.595
tot    0.000  0.657  0.163  0.820
 
band     4 # energy    3.74595418 # occ.  1.33332609
 
ion      s      p      d    tot
    1  0.000  0.063  0.163  0.226
    2  0.000  0.595  0.000  0.595
tot    0.000  0.657  0.163  0.820
 
band     5 # energy    3.74595440 # occ.  1.33330313
 
ion      s      p      d    tot
    1  0.000  0.063  0.163  0.226
    2  0.000  0.595  0.000  0.595
tot    0.000  0.657  0.163  0.820
 
band     6 # energy   12.87013477 # occ.  0.00000000
 
ion      s      p      d    tot
    1  0.000  0.759  0.011  0.769
    2  0.000  0.002  0.000  0.002
tot    0.000  0.761  0.011  0.772
 
band     7 # energy   12.87013494 # occ.  0.00000000
 
ion      s      p      d    tot
    1  0.000  0.759  0.011  0.769
    2  0.000  0.002  0.000  0.002
tot    0.000  0.761  0.011  0.772
 
band     8 # energy   12.87013496 # occ.  0.00000000
 
ion      s      p      d    tot
    1  0.000  0.759  0.011  0.769
    2  0.000  0.002  0.000  0.002
tot    0.000  0.761  0.011  0.772
 

 k-point     2 :    0.10000000 0.00000000-0.00000000     weight = 0.00800000

band     1 # energy  -10.21070335 # occ.  2.00000000
 
ion      s      p      d    tot
    1  0.323  0.010  0.002  0.335
    2  0.490  0.000  0.000  0.490
tot    0.812  0.011  0.002  0.825
 
band     2 # energy    2.27589377 # occ.  2.00000000
 
ion      s      p      d    tot
    1  0.250  0.033  0.081  0.364
    2  0.153  0.228  0.000  0.381
tot    0.403  0.261  0.081  0.745
 
band     3 # energy    3.66570697 # occ.  2.00000000
 
ion      s      p      d    tot
    1  0.000  0.078  0.155  0.233
    2  0.000  0.587  0.000  0.587
tot    0.000  0.665  0.155  0.820
 
band     4 # energy    3.66570747 # occ.  2.00000000
 
ion      s      p      d    tot
    1  0.000  0.078  0.155  0.233
    2  0.000  0.587  0.000  0.587
tot    0.000  0.665  0.155  0.820
 
band     5 # energy    4.51859590 # occ.  0.00000000
 
ion      s      p      d    tot
    1  0.138  0.069  0.061  0.269
    2  0.107  0.345  0.000  0.452
tot    0.245  0.415  0.061  0.721
 
band     6 # energy   12.24206517 # occ.  0.00000000
 
ion      s      p      d    tot
    1  0.066  0.599  0.017  0.682
    2  0.000  0.037  0.000  0.037
tot    0.066  0.636  0.017  0.719
 
band     7 # energy   12.97114510 # occ.  0.00000000
 
ion      s      p      d    tot
    1  0.000  0.745  0.019  0.764
    2  0.000  0.012  0.000  0.012
tot    0.000  0.757  0.019  0.776
 
band     8 # energy   12.97114524 # occ.  0.00000000
 
ion      s      p      d    tot
    1  0.000  0.745  0.019  0.764
    2  0.000  0.012  0.000  0.012
tot    0.000  0.757  0.019  0.776
 

 k-point     3 :    0.20000000 0.00000000-0.00000000     weight = 0.00800000

band     1 # energy   -9.90890623 # occ.  2.00000000
 
ion      s      p      d    tot
    1  0.277  0.038  0.007  0.322
    2  0.506  0.001  0.000  0.507
tot    0.783  0.039  0.007  0.829
 
band     2 # energy    1.00904508 # occ.  2.00000000
 
ion      s      p      d    tot
    1  0.253  0.085  0.080  0.418
    2  0.112  0.251  0.000  0.363
tot    0.365  0.336  0.080  0.781
 
band     3 # energy    3.46481509 # occ.  2.00000000
 
ion      s      p      d    tot
    1  0.000  0.113  0.136  0.249
    2  0.000  0.570  0.000  0.570
tot    0.000  0.683  0.136  0.819
 
band     4 # energy    3.46481557 # occ.  2.00000000
 
ion      s      p      d    tot
    1  0.000  0.113  0.136  0.249
    2  0.000  0.570  0.000  0.570
tot    0.000  0.683  0.136  0.819
 
band     5 # energy    5.38824895 # occ.  0.00000000
 
ion      s      p      d    tot
    1  0.180  0.110  0.015  0.305
    2  0.125  0.258  0.000  0.384
tot    0.306  0.368  0.015  0.688
 
band     6 # energy   11.19662326 # occ.  0.00000000
 
ion      s      p      d    tot
    1  0.119  0.374  0.037  0.531
    2  0.002  0.122  0.000  0.124
tot    0.121  0.496  0.037  0.655
 
band     7 # energy   13.12583739 # occ.  0.00000000
 
ion      s      p      d    tot
    1  0.000  0.691  0.066  0.757
    2  0.000  0.029  0.000  0.029
tot    0.000  0.721  0.066  0.787
 
band     8 # energy   13.12583766 # occ.  0.00000000
 
ion      s      p      d    tot
    1  0.000  0.691  0.066  0.757
    2  0.000  0.029  0.000  0.029
tot    0.000  0.721  0.066  0.787
 

 k-point     4 :    0.30000000 0.00000000 0.00000000     weight = 0.00800000

band     1 # energy   -9.47471869 # occ.  2.00000000
 
ion      s      p      d    tot
    1  0.208  0.075  0.016  0.299
    2  0.534  0.002  0.000  0.536
tot    0.742  0.077  0.016  0.835
 
band     2 # energy   -0.26572640 # occ.  2.00000000
 
ion      s      p      d    tot
    1  0.293  0.143  0.050  0.486
    2  0.070  0.241  0.000  0.311
tot    0.363  0.385  0.050  0.797
 
band     3 # energy    3.23195767 # occ.  2.00000000
 
ion      s      p      d    tot
    1  0.000  0.153  0.113  0.265
    2  0.000  0.552  0.000  0.552
tot    0.000  0.705  0.113  0.817
 
band     4 # energy    3.23195811 # occ.  2.00000000
 
ion      s      p      d    tot
    1  0.000  0.153  0.113  0.265
    2  0.000  0.552  0.000  0.552
tot    0.000  0.705  0.113  0.817
 
band     5 # energy    6.08287648 # occ.  0.00000000
 
ion      s      p      d    tot
    1  0.244  0.138  0.000  0.382
    2  0.131  0.166  0.000  0.297
tot    0.375  0.304  0.000  0.680
 
band     6 # energy   10.45881687 # occ.  0.00000000
 
ion      s      p      d    tot
    1  0.100  0.209  0.066  0.375
    2  0.004  0.244  0.000  0.248
tot    0.104  0.453  0.066  0.623
 
band     7 # energy   13.09283817 # occ.  0.00000000
 
ion      s      p      d    tot
    1  0.000  0.594  0.164  0.758
    2  0.000  0.036  0.000  0.036
tot    0.000  0.631  0.164  0.794
 
band     8 # energy   13.09283872 # occ.  0.00000000
 
ion      s      p      d    tot
    1  0.000  0.594  0.164  0.758
    2  0.000  0.036  0.000  0.036
tot    0.000  0.631  0.164  0.794
 

 k-point     5 :    0.40000000 0.00000000-0.00000000     weight = 0.00800000

band     1 # energy   -9.05083951 # occ.  2.00000000
 
ion      s      p      d    tot
    1  0.134  0.108  0.028  0.269
    2  0.570  0.001  0.000  0.571
tot    0.704  0.109  0.028  0.841
 
band     2 # energy   -1.26949243 # occ.  2.00000000
 
ion      s      p      d    tot
    1  0.348  0.181  0.017  0.546
    2  0.026  0.230  0.000  0.256
tot    0.374  0.411  0.017  0.802
 
band     3 # energy    3.05393642 # occ.  2.00000000
 
ion      s      p      d    tot
    1  0.000  0.181  0.095  0.276
    2  0.000  0.540  0.000  0.540
tot    0.000  0.721  0.095  0.816
 
band     4 # energy    3.05393683 # occ.  2.00000000
 
ion      s      p      d    tot
    1  0.000  0.181  0.095  0.276
    2  0.000  0.540  0.000  0.540
tot    0.000  0.721  0.095  0.816
 
band     5 # energy    6.49620647 # occ.  0.00000000
 
ion      s      p      d    tot
    1  0.321  0.143  0.007  0.471
    2  0.132  0.075  0.000  0.207
tot    0.453  0.217  0.007  0.678
 
band     6 # energy   10.13946824 # occ.  0.00000000
 
ion      s      p      d    tot
    1  0.042  0.119  0.094  0.254
    2  0.005  0.362  0.000  0.368
tot    0.047  0.481  0.094  0.622
 
band     7 # energy   12.93454443 # occ.  0.00000000
 
ion      s      p      d    tot
    1  0.000  0.518  0.242  0.760
    2  0.000  0.035  0.000  0.035
tot    0.000  0.553  0.242  0.795
 
band     8 # energy   12.93454519 # occ.  0.00000000
 
ion      s      p      d    tot
    1  0.000  0.518  0.242  0.760
    2  0.000  0.035  0.000  0.035
tot    0.000  0.553  0.242  0.795
 

 k-point     6 :    0.50000000 0.00000000-0.00000000     weight = 0.00400000

band     1 # energy   -8.86400334 # occ.  2.00000000
 
ion      s      p      d    tot
    1  0.098  0.122  0.034  0.254
    2  0.590  0.000  0.000  0.590
tot    0.688  0.122  0.034  0.843
 
band     2 # energy   -1.66355448 # occ.  2.00000000
 
ion      s      p      d    tot
    1  0.377  0.192  0.003  0.572
    2  0.004  0.226  0.000  0.230
tot    0.382  0.418  0.003  0.802
 
band     3 # energy    2.98806589 # occ.  2.00000000
 
ion      s      p      d    tot
    1  0.000  0.192  0.088  0.280
    2  0.000  0.535  0.000  0.535
tot    0.000  0.727  0.088  0.815
 
band     4 # energy    2.98806630 # occ.  2.00000000
 
ion      s      p      d    tot
    1  0.000  0.192  0.088  0.280
    2  0.000  0.535  0.000  0.535
tot    0.000  0.727  0.088  0.815
 
band     5 # energy    6.62107976 # occ.  0.00000000
 
ion      s      p      d    tot
    1  0.355  0.138  0.013  0.507
    2  0.132  0.037  0.000  0.169
tot    0.487  0.175  0.013  0.676
 
band     6 # energy   10.07496606 # occ.  0.00000000
 
ion      s      p      d    tot
    1  0.013  0.093  0.107  0.213
    2  0.006  0.410  0.000  0.416
tot    0.019  0.503  0.107  0.629
 
band     7 # energy   12.85578326 # occ.  0.00000000
 
ion      s      p      d    tot
    1  0.000  0.493  0.268  0.761
    2  0.000  0.034  0.000  0.034
tot    0.000  0.527  0.268  0.794
 
band     8 # energy   12.85578409 # occ.  0.00000000
 
ion      s      p      d    tot
    1  0.000  0.493  0.268  0.761
    2  0.000  0.034  0.000  0.034
tot    0.000  0.527  0.268  0.794
 

 k-point     7 :    0.10000000 0.10000000-0.00000000     weight = 0.00600000

band     1 # energy  -10.17548579 # occ.  2.00000000
 
ion      s      p      d    tot
    1  0.318  0.014  0.002  0.333
    2  0.491  0.001  0.000  0.492
tot    0.809  0.014  0.002  0.825
 
band     2 # energy    2.19849976 # occ.  2.00000000
 
ion      s      p      d    tot
    1  0.267  0.016  0.085  0.368
    2  0.159  0.220  0.000  0.379
tot    0.425  0.236  0.085  0.747
 
band     3 # energy    3.52119142 # occ.  2.00000000
 
ion      s      p      d    tot
    1  0.000  0.102  0.146  0.248
    2  0.000  0.571  0.000  0.571
tot    0.000  0.673  0.146  0.819
 
band     4 # energy    3.52119161 # occ.  2.00000000
 
ion      s      p      d    tot
    1  0.000  0.102  0.146  0.248
    2  0.000  0.571  0.000  0.571
tot    0.000  0.673  0.146  0.819
 
band     5 # energy    4.78837929 # occ.  0.00000000
 
ion      s      p      d    tot
    1  0.123  0.060  0.064  0.247
    2  0.098  0.374  0.000  0.472
tot    0.221  0.434  0.064  0.720
 
band     6 # energy   12.10774960 # occ.  0.00000000
 
ion      s      p      d    tot
    1  0.091  0.631  0.025  0.747
    2  0.000  0.005  0.000  0.005
tot    0.091  0.635  0.025  0.751
 
band     7 # energy   12.97950185 # occ.  0.00000000
 
ion      s      p      d    tot
    1  0.000  0.698  0.017  0.715
    2  0.000  0.038  0.000  0.038
tot    0.000  0.735  0.017  0.752
 
band     8 # energy   12.97950188 # occ.  0.00000000
 
ion      s      p      d    tot
    1  0.000  0.698  0.017  0.715
    2  0.000  0.038  0.000  0.038
tot    0.000  0.735  0.017  0.752
 

 k-point     8 :    0.20000000 0.10000000 0.00000000     weight = 0.02400000

band     1 # energy   -9.93912325 # occ.  2.00000000
 
ion      s      p      d    tot
    1  0.282  0.036  0.006  0.323
    2  0.504  0.001  0.000  0.505
tot    0.785  0.037  0.006  0.828
 
band     2 # energy    1.30000187 # occ.  2.00000000
 
ion      s      p      d    tot
    1  0.268  0.049  0.089  0.405
    2  0.126  0.246  0.000  0.372
tot    0.394  0.295  0.089  0.778
 
band     3 # energy    3.27210105 # occ.  2.00000000
 
ion      s      p      d    tot
    1  0.000  0.143  0.126  0.268
    2  0.000  0.549  0.000  0.549
tot    0.000  0.692  0.126  0.817
 
band     4 # energy    3.32388738 # occ.  2.00000000
 
ion      s      p      d    tot
    1  0.010  0.128  0.128  0.267
    2  0.004  0.544  0.000  0.548
tot    0.014  0.673  0.128  0.815
 
band     5 # energy    5.51081921 # occ.  0.00000000
 
ion      s      p      d    tot
    1  0.139  0.091  0.029  0.259
    2  0.108  0.326  0.000  0.434
tot    0.247  0.416  0.029  0.693
 
band     6 # energy   11.31299632 # occ.  0.00000000
 
ion      s      p      d    tot
    1  0.150  0.459  0.047  0.656
    2  0.000  0.061  0.000  0.061
tot    0.151  0.520  0.047  0.717
 
band     7 # energy   12.96561743 # occ.  0.00000000
 
ion      s      p      d    tot
    1  0.003  0.625  0.060  0.687
    2  0.002  0.042  0.000  0.044
tot    0.005  0.666  0.060  0.730
 
band     8 # energy   13.13114169 # occ.  0.00000000
 
ion      s      p      d    tot
    1  0.000  0.637  0.041  0.678
    2  0.000  0.069  0.000  0.069
tot    0.000  0.705  0.041  0.746
 

 k-point     9 :    0.30000000 0.10000000-0.00000000     weight = 0.02400000

band     1 # energy   -9.54679097 # occ.  2.00000000
 
ion      s      p      d    tot
    1  0.219  0.070  0.014  0.303
    2  0.528  0.002  0.000  0.530
tot    0.748  0.072  0.014  0.834
 
band     2 # energy    0.13585265 # occ.  2.00000000
 
ion      s      p      d    tot
    1  0.292  0.111  0.063  0.466
    2  0.085  0.246  0.000  0.331
tot    0.377  0.357  0.063  0.797
 
band     3 # energy    3.02413574 # occ.  2.00000000
 
ion      s      p      d    tot
    1  0.000  0.182  0.103  0.285
    2  0.000  0.530  0.000  0.530
tot    0.000  0.712  0.103  0.815
 
band     4 # energy    3.05336190 # occ.  2.00000000
 
ion      s      p      d    tot
    1  0.026  0.156  0.108  0.290
    2  0.007  0.513  0.000  0.521
tot    0.033  0.669  0.108  0.810
 
band     5 # energy    6.25691606 # occ.  0.00000000
 
ion      s      p      d    tot
    1  0.179  0.123  0.009  0.312
    2  0.113  0.258  0.000  0.371
tot    0.292  0.381  0.009  0.682
 
band     6 # energy   10.58654411 # occ.  0.00000000
 
ion      s      p      d    tot
    1  0.145  0.269  0.082  0.496
    2  0.002  0.176  0.000  0.178
tot    0.148  0.445  0.082  0.674
 
band     7 # energy   12.64091992 # occ.  0.00000000
 
ion      s      p      d    tot
    1  0.020  0.500  0.151  0.670
    2  0.005  0.030  0.000  0.035
tot    0.025  0.530  0.151  0.705
 
band     8 # energy   13.20421423 # occ.  0.00000000
 
ion      s      p      d    tot
    1  0.000  0.563  0.113  0.675
    2  0.000  0.082  0.000  0.082
tot    0.000  0.645  0.113  0.758
 

 k-point    10 :    0.40000000 0.10000000-0.00000000     weight = 0.02400000

band     1 # energy   -9.10956237 # occ.  2.00000000
 
ion      s      p      d    tot
    1  0.145  0.105  0.025  0.275
    2  0.563  0.002  0.000  0.565
tot    0.708  0.106  0.025  0.840
 
band     2 # energy   -0.92199130 # occ.  2.00000000
 
ion      s      p      d    tot
    1  0.340  0.161  0.028  0.528
    2  0.040  0.236  0.000  0.276
tot    0.380  0.397  0.028  0.804
 
band     3 # energy    2.75750461 # occ.  2.00000000
 
ion      s      p      d    tot
    1  0.038  0.184  0.089  0.312
    2  0.009  0.486  0.000  0.495
tot    0.048  0.670  0.089  0.807
 
band     4 # energy    2.86746376 # occ.  2.00000000
 
ion      s      p      d    tot
    1  0.000  0.206  0.086  0.292
    2  0.000  0.521  0.000  0.521
tot    0.000  0.727  0.086  0.814
 
band     5 # energy    6.82837133 # occ.  0.00000000
 
ion      s      p      d    tot
    1  0.251  0.136  0.011  0.398
    2  0.113  0.174  0.000  0.287
tot    0.364  0.310  0.011  0.685
 
band     6 # energy   10.12966651 # occ.  0.00000000
 
ion      s      p      d    tot
    1  0.076  0.154  0.120  0.350
    2  0.004  0.292  0.000  0.296
tot    0.080  0.446  0.120  0.646
 
band     7 # energy   12.41428812 # occ.  0.00000000
 
ion      s      p      d    tot
    1  0.041  0.420  0.193  0.654
    2  0.005  0.056  0.000  0.061
tot    0.046  0.476  0.193  0.715
 
band     8 # energy   13.12160745 # occ.  0.00000000
 
ion      s      p      d    tot
    1  0.000  0.500  0.197  0.698
    2  0.000  0.075  0.000  0.075
tot    0.000  0.575  0.197  0.772
 

 k-point    11 :    0.50000000 0.10000000-0.00000000     weight = 0.02400000

band     1 # energy   -8.82785548 # occ.  2.00000000
 
ion      s      p      d    tot
    1  0.092  0.125  0.035  0.252
    2  0.591  0.000  0.000  0.592
tot    0.683  0.126  0.035  0.844
 
band     2 # energy   -1.51878390 # occ.  2.00000000
 
ion      s      p      d    tot
    1  0.380  0.184  0.005  0.568
    2  0.007  0.230  0.000  0.237
tot    0.387  0.413  0.005  0.805
 
band     3 # energy    2.53625026 # occ.  2.00000000
 
ion      s      p      d    tot
    1  0.044  0.205  0.077  0.327
    2  0.010  0.468  0.000  0.478
tot    0.054  0.673  0.077  0.804
 
band     4 # energy    2.85086978 # occ.  2.00000000
 
ion      s      p      d    tot
    1  0.000  0.210  0.081  0.291
    2  0.000  0.522  0.000  0.522
tot    0.000  0.732  0.081  0.814
 
band     5 # energy    7.10453143 # occ.  0.00000000
 
ion      s      p      d    tot
    1  0.311  0.135  0.016  0.462
    2  0.113  0.113  0.000  0.226
tot    0.423  0.248  0.016  0.687
 
band     6 # energy    9.94242229 # occ.  0.00000000
 
ion      s      p      d    tot
    1  0.012  0.115  0.148  0.275
    2  0.005  0.357  0.000  0.362
tot    0.017  0.472  0.148  0.637
 
band     7 # energy   12.35267717 # occ.  0.00000000
 
ion      s      p      d    tot
    1  0.049  0.376  0.199  0.625
    2  0.004  0.098  0.000  0.102
tot    0.053  0.474  0.199  0.727
 
band     8 # energy   13.02337848 # occ.  0.00000000
 
ion      s      p      d    tot
    1  0.000  0.476  0.248  0.724
    2  0.000  0.059  0.000  0.059
tot    0.000  0.535  0.248  0.783
 

 k-point    12 :   -0.40000000 0.10000000 0.00000000     weight = 0.02400000

band     1 # energy   -8.89047859 # occ.  2.00000000
 
ion      s      p      d    tot
    1  0.105  0.121  0.032  0.258
    2  0.585  0.001  0.000  0.585
tot    0.689  0.121  0.032  0.843
 
band     2 # energy   -1.39079777 # occ.  2.00000000
 
ion      s      p      d    tot
    1  0.370  0.180  0.010  0.560
    2  0.015  0.231  0.000  0.245
tot    0.384  0.411  0.010  0.805
 
band     3 # energy    2.45867115 # occ.  2.00000000
 
ion      s      p      d    tot
    1  0.043  0.215  0.074  0.332
    2  0.009  0.462  0.000  0.471
tot    0.052  0.677  0.074  0.803
 
band     4 # energy    2.97710937 # occ.  2.00000000
 
ion      s      p      d    tot
    1  0.000  0.193  0.089  0.281
    2  0.000  0.534  0.000  0.534
tot    0.000  0.726  0.089  0.815
 
band     5 # energy    7.06775707 # occ.  0.00000000
 
ion      s      p      d    tot
    1  0.302  0.134  0.013  0.449
    2  0.113  0.127  0.000  0.240
tot    0.416  0.261  0.013  0.690
 
band     6 # energy    9.99136132 # occ.  0.00000000
 
ion      s      p      d    tot
    1  0.019  0.123  0.142  0.283
    2  0.005  0.344  0.000  0.350
tot    0.024  0.467  0.142  0.633
 
band     7 # energy   12.29837923 # occ.  0.00000000
 
ion      s      p      d    tot
    1  0.051  0.371  0.186  0.608
    2  0.004  0.100  0.000  0.105
tot    0.055  0.471  0.186  0.713
 
band     8 # energy   13.04896166 # occ.  0.00000000
 
ion      s      p      d    tot
    1  0.000  0.500  0.252  0.751
    2  0.000  0.044  0.000  0.044
tot    0.000  0.544  0.252  0.795
 

 k-point    13 :   -0.30000000 0.10000000-0.00000000     weight = 0.02400000

band     1 # energy   -9.25069147 # occ.  2.00000000
 
ion      s      p      d    tot
    1  0.170  0.093  0.022  0.285
    2  0.551  0.002  0.000  0.553
tot    0.721  0.095  0.022  0.838
 
band     2 # energy   -0.60464599 # occ.  2.00000000
 
ion      s      p      d    tot
    1  0.321  0.149  0.039  0.509
    2  0.055  0.239  0.000  0.294
tot    0.376  0.388  0.039  0.803
 
band     3 # energy    2.55964789 # occ.  2.00000000
 
ion      s      p      d    tot
    1  0.034  0.212  0.081  0.327
    2  0.007  0.471  0.000  0.478
tot    0.041  0.683  0.081  0.804
 
band     4 # energy    3.20527109 # occ.  2.00000000
 
ion      s      p      d    tot
    1  0.000  0.158  0.107  0.265
    2  0.000  0.552  0.000  0.552
tot    0.000  0.710  0.107  0.817
 
band     5 # energy    6.69345289 # occ.  0.00000000
 
ion      s      p      d    tot
    1  0.234  0.131  0.006  0.371
    2  0.115  0.201  0.000  0.317
tot    0.350  0.332  0.006  0.688
 
band     6 # energy   10.30671392 # occ.  0.00000000
 
ion      s      p      d    tot
    1  0.087  0.180  0.107  0.375
    2  0.004  0.262  0.000  0.266
tot    0.092  0.442  0.107  0.641
 
band     7 # energy   12.28074708 # occ.  0.00000000
 
ion      s      p      d    tot
    1  0.039  0.403  0.156  0.599
    2  0.006  0.075  0.000  0.080
tot    0.045  0.478  0.156  0.679
 
band     8 # energy   13.21152436 # occ.  0.00000000
 
ion      s      p      d    tot
    1  0.000  0.582  0.201  0.783
    2  0.000  0.031  0.000  0.031
tot    0.000  0.614  0.201  0.814
 

 k-point    14 :   -0.20000000 0.10000000-0.00000000     weight = 0.02400000

band     1 # energy   -9.69080149 # occ.  2.00000000
 
ion      s      p      d    tot
    1  0.243  0.057  0.011  0.311
    2  0.519  0.002  0.000  0.521
tot    0.762  0.059  0.011  0.832
 
band     2 # energy    0.50512457 # occ.  2.00000000
 
ion      s      p      d    tot
    1  0.278  0.095  0.072  0.445
    2  0.099  0.247  0.000  0.347
tot    0.377  0.342  0.072  0.792
 
band     3 # energy    2.84266871 # occ.  2.00000000
 
ion      s      p      d    tot
    1  0.018  0.190  0.099  0.308
    2  0.003  0.498  0.000  0.501
tot    0.021  0.688  0.099  0.809
 
band     4 # energy    3.45827763 # occ.  2.00000000
 
ion      s      p      d    tot
    1  0.000  0.116  0.130  0.247
    2  0.000  0.572  0.000  0.572
tot    0.000  0.688  0.130  0.819
 
band     5 # energy    6.01128562 # occ.  0.00000000
 
ion      s      p      d    tot
    1  0.174  0.113  0.010  0.298
    2  0.116  0.273  0.000  0.390
tot    0.290  0.387  0.010  0.687
 
band     6 # energy   10.91584897 # occ.  0.00000000
 
ion      s      p      d    tot
    1  0.143  0.309  0.069  0.521
    2  0.002  0.154  0.000  0.156
tot    0.145  0.463  0.069  0.677
 
band     7 # energy   12.44058826 # occ.  0.00000000
 
ion      s      p      d    tot
    1  0.013  0.471  0.102  0.586
    2  0.006  0.064  0.000  0.070
tot    0.018  0.535  0.102  0.656
 
band     8 # energy   13.32757277 # occ.  0.00000000
 
ion      s      p      d    tot
    1  0.000  0.713  0.098  0.811
    2  0.000  0.018  0.000  0.018
tot    0.000  0.731  0.098  0.829
 

 k-point    15 :   -0.10000000 0.10000000 0.00000000     weight = 0.01200000

band     1 # energy  -10.03911651 # occ.  2.00000000
 
ion      s      p      d    tot
    1  0.297  0.026  0.004  0.328
    2  0.498  0.001  0.000  0.499
tot    0.795  0.027  0.004  0.827
 
band     2 # energy    1.57307895 # occ.  2.00000000
 
ion      s      p      d    tot
    1  0.256  0.048  0.088  0.392
    2  0.133  0.244  0.000  0.377
tot    0.389  0.292  0.088  0.769
 
band     3 # energy    3.27116240 # occ.  2.00000000
 
ion      s      p      d    tot
    1  0.005  0.139  0.128  0.272
    2  0.000  0.544  0.000  0.544
tot    0.005  0.683  0.128  0.816
 
band     4 # energy    3.63907620 # occ.  2.00000000
 
ion      s      p      d    tot
    1  0.000  0.084  0.149  0.233
    2  0.000  0.587  0.000  0.587
tot    0.000  0.671  0.149  0.820
 
band     5 # energy    5.18337545 # occ.  0.00000000
 
ion      s      p      d    tot
    1  0.148  0.086  0.035  0.268
    2  0.113  0.319  0.000  0.432
tot    0.261  0.405  0.035  0.700
 
band     6 # energy   11.67467807 # occ.  0.00000000
 
ion      s      p      d    tot
    1  0.123  0.484  0.036  0.643
    2  0.000  0.068  0.000  0.068
tot    0.123  0.552  0.036  0.710
 
band     7 # energy   12.77056115 # occ.  0.00000000
 
ion      s      p      d    tot
    1  0.000  0.596  0.042  0.638
    2  0.002  0.055  0.000  0.058
tot    0.003  0.652  0.042  0.696
 
band     8 # energy   13.17176485 # occ.  0.00000000
 
ion      s      p      d    tot
    1  0.000  0.770  0.034  0.804
    2  0.000  0.006  0.000  0.006
tot    0.000  0.776  0.034  0.810
 

 k-point    16 :    0.20000000 0.20000000-0.00000000     weight = 0.00600000

band     1 # energy   -9.77605685 # occ.  2.00000000
 
ion      s      p      d    tot
    1  0.255  0.052  0.009  0.316
    2  0.513  0.002  0.000  0.515
tot    0.768  0.054  0.009  0.831
 
band     2 # energy    1.07000662 # occ.  2.00000000
 
ion      s      p      d    tot
    1  0.309  0.016  0.095  0.420
    2  0.126  0.243  0.000  0.369
tot    0.435  0.259  0.095  0.789
 
band     3 # energy    2.96857747 # occ.  2.00000000
 
ion      s      p      d    tot
    1  0.000  0.187  0.105  0.292
    2  0.000  0.522  0.000  0.522
tot    0.000  0.709  0.105  0.814
 
band     4 # energy    2.96857763 # occ.  2.00000000
 
ion      s      p      d    tot
    1  0.000  0.187  0.105  0.292
    2  0.000  0.522  0.000  0.522
tot    0.000  0.709  0.105  0.814
 
band     5 # energy    5.97538575 # occ.  0.00000000
 
ion      s      p      d    tot
    1  0.110  0.113  0.022  0.244
    2  0.098  0.334  0.000  0.432
tot    0.208  0.447  0.022  0.677
 
band     6 # energy   10.75524608 # occ.  0.00000000
 
ion      s      p      d    tot
    1  0.215  0.451  0.068  0.734
    2  0.000  0.023  0.000  0.023
tot    0.215  0.474  0.068  0.757
 
band     7 # energy   13.32911353 # occ.  0.00000000
 
ion      s      p      d    tot
    1  0.000  0.576  0.037  0.613
    2  0.000  0.115  0.000  0.115
tot    0.000  0.691  0.037  0.727
 
band     8 # energy   13.32911358 # occ.  0.00000000
 
ion      s      p      d    tot
    1  0.000  0.576  0.037  0.613
    2  0.000  0.115  0.000  0.115
tot    0.000  0.691  0.037  0.727
 

 k-point    17 :    0.30000000 0.20000000 0.00000000     weight = 0.02400000

band     1 # energy   -9.45091983 # occ.  2.00000000
 
ion      s      p      d    tot
    1  0.203  0.081  0.015  0.299
    2  0.534  0.002  0.000  0.536
tot    0.736  0.083  0.015  0.835
 
band     2 # energy    0.33014319 # occ.  2.00000000
 
ion      s      p      d    tot
    1  0.337  0.047  0.078  0.462
    2  0.096  0.248  0.000  0.344
tot    0.433  0.295  0.078  0.806
 
band     3 # energy    2.61616739 # occ.  2.00000000
 
ion      s      p      d    tot
    1  0.018  0.218  0.084  0.321
    2  0.004  0.483  0.000  0.487
tot    0.022  0.702  0.084  0.807
 
band     4 # energy    2.68034917 # occ.  2.00000000
 
ion      s      p      d    tot
    1  0.000  0.228  0.083  0.311
    2  0.000  0.501  0.000  0.501
tot    0.000  0.728  0.083  0.811
 
band     5 # energy    6.57194557 # occ.  0.00000000
 
ion      s      p      d    tot
    1  0.105  0.154  0.016  0.275
    2  0.094  0.293  0.000  0.387
tot    0.199  0.447  0.016  0.663
 
band     6 # energy   10.22559918 # occ.  0.00000000
 
ion      s      p      d    tot
    1  0.253  0.321  0.102  0.676
    2  0.000  0.087  0.000  0.087
tot    0.253  0.408  0.102  0.763
 
band     7 # energy   12.65836802 # occ.  0.00000000
 
ion      s      p      d    tot
    1  0.003  0.288  0.219  0.510
    2  0.009  0.084  0.000  0.093
tot    0.012  0.372  0.219  0.603
 
band     8 # energy   13.52306620 # occ.  0.00000000
 
ion      s      p      d    tot
    1  0.000  0.516  0.074  0.589
    2  0.000  0.144  0.000  0.144
tot    0.000  0.659  0.074  0.733
 

 k-point    18 :    0.40000000 0.20000000 0.00000000     weight = 0.02400000

band     1 # energy   -9.04810908 # occ.  2.00000000
 
ion      s      p      d    tot
    1  0.133  0.114  0.026  0.273
    2  0.565  0.002  0.000  0.567
tot    0.699  0.116  0.026  0.840
 
band     2 # energy   -0.53333471 # occ.  2.00000000
 
ion      s      p      d    tot
    1  0.370  0.103  0.043  0.516
    2  0.053  0.245  0.000  0.298
tot    0.423  0.348  0.043  0.814
 
band     3 # energy    2.15641571 # occ.  2.00000000
 
ion      s      p      d    tot
    1  0.052  0.236  0.069  0.356
    2  0.009  0.433  0.000  0.442
tot    0.061  0.669  0.069  0.798
 
band     4 # energy    2.50970680 # occ.  2.00000000
 
ion      s      p      d    tot
    1  0.000  0.251  0.068  0.319
    2  0.000  0.491  0.000  0.491
tot    0.000  0.742  0.068  0.809
 
band     5 # energy    7.23968524 # occ.  0.00000000
 
ion      s      p      d    tot
    1  0.136  0.171  0.032  0.339
    2  0.087  0.240  0.000  0.327
tot    0.224  0.410  0.032  0.666
 
band     6 # energy    9.92029671 # occ.  0.00000000
 
ion      s      p      d    tot
    1  0.214  0.189  0.141  0.545
    2  0.001  0.199  0.000  0.201
tot    0.216  0.389  0.141  0.745
 
band     7 # energy   12.02021358 # occ.  0.00000000
 
ion      s      p      d    tot
    1  0.027  0.257  0.192  0.476
    2  0.014  0.107  0.000  0.121
tot    0.041  0.364  0.192  0.597
 
band     8 # energy   13.55326156 # occ.  0.00000000
 
ion      s      p      d    tot
    1  0.000  0.463  0.143  0.606
    2  0.000  0.143  0.000  0.143
tot    0.000  0.607  0.143  0.749
 

 k-point    19 :    0.50000000 0.20000000 0.00000000     weight = 0.02400000

band     1 # energy   -8.72771765 # occ.  2.00000000
 
ion      s      p      d    tot
    1  0.074  0.137  0.037  0.247
    2  0.597  0.001  0.000  0.598
tot    0.671  0.137  0.037  0.845
 
band     2 # energy   -1.15521070 # occ.  2.00000000
 
ion      s      p      d    tot
    1  0.405  0.144  0.012  0.561
    2  0.014  0.241  0.000  0.255
tot    0.419  0.385  0.012  0.816
 
band     3 # energy    1.72674516 # occ.  2.00000000
 
ion      s      p      d    tot
    1  0.077  0.249  0.059  0.384
    2  0.012  0.396  0.000  0.408
tot    0.088  0.644  0.059  0.792
 
band     4 # energy    2.50917200 # occ.  2.00000000
 
ion      s      p      d    tot
    1  0.000  0.253  0.063  0.317
    2  0.000  0.493  0.000  0.493
tot    0.000  0.746  0.063  0.810
 
band     5 # energy    7.80904711 # occ.  0.00000000
 
ion      s      p      d    tot
    1  0.213  0.164  0.042  0.419