<?xml version="1.0" encoding="ISO-8859-1"?>
<modeling>
 <generator>
  <i name="program" type="string">vasp </i>
  <i name="version" type="string">5.4.4.18Apr17-6-g9f103f2a35  </i>
  <i name="subversion" type="string">(build Apr 10 2018 17:34:00) complex            parallel </i>
  <i name="platform" type="string">LinuxIFC </i>
  <i name="date" type="string">2018 10 04 </i>
  <i name="time" type="string">08:24:09 </i>
 </generator>
 <incar>
  <i type="string" name="SYSTEM"> InN</i>
  <i type="string" name="PREC">accurate  ! calcululation level (change</i>
  <i type="string" name="ALGO"> NORMAL    ! A Davidson blocked iteratio</i>
  <i type="logical" name="ADDGRID"> T  </i>
  <i type="int" name="ISPIN">     1</i>
  <i name="AMIX">      0.20000000</i>
  <i name="BMIX">      0.00100000</i>
  <i type="int" name="NELM">   100</i>
  <i type="int" name="NELMDL">    -8</i>
  <i type="int" name="NELMIN">     6</i>
  <i type="int" name="IBRION">     2</i>
  <i name="EDIFF">      0.00000010</i>
  <i name="EDIFFG">     -0.00100000</i>
  <i type="int" name="NSW">   100</i>
  <i type="int" name="ISIF">     3</i>
  <i name="ENCUT">    800.00000000</i>
  <i name="POTIM">      0.50000000</i>
  <i type="int" name="NEDOS">    11</i>
  <i type="logical" name="LREAL"> F  </i>
  <i type="logical" name="LPLANE"> T  </i>
  <i type="int" name="ISMEAR">     0</i>
  <i name="SIGMA">      0.01000000</i>
  <i type="int" name="NWRITE">     1</i>
  <i type="int" name="LMAXMIX">     6</i>
  <i type="logical" name="LWAVE"> F  </i>
  <i type="logical" name="LCHARG"> F  </i>
  <i type="int" name="LORBIT">    10</i>
  <i type="logical" name="LASPH"> T  </i>
  <v type="int" name="KPOINT_BSE">    -1     0     0     0</v>
  <i type="int" name="NELM">   100</i>
  <i type="logical" name="LASPH"> T  </i>
 </incar>
 <structure name="primitive_cell" >
  <crystal>
   <varray name="basis" >
    <v>       0.00000000       2.55141955       2.55141955 </v>
    <v>       2.55141955       0.00000000       2.55141955 </v>
    <v>       2.55141955       2.55141955       0.00000000 </v>
   </varray>
   <i name="volume">     33.21816452 </i>
   <varray name="rec_basis" >
    <v>      -0.19596934       0.19596934       0.19596934 </v>
    <v>       0.19596934      -0.19596934       0.19596934 </v>
    <v>       0.19596934       0.19596934      -0.19596934 </v>
   </varray>
  </crystal>
  <varray name="positions" >
   <v>       0.00000000       0.00000000       0.00000000 </v>
   <v>       0.25000000       0.25000000       0.25000000 </v>
  </varray>
 </structure>
 <varray name="primitive_index" >
  <v type="int" >        1 </v>
  <v type="int" >        2 </v>
 </varray>
 <kpoints>
  <generation param="Auto">
   <i name="subdivisionlength">     30.00000000 </i>
   <v type="int" name="divisions">      10       10       10 </v>
   <v name="usershift">      0.00000000       0.00000000       0.00000000 </v>
   <v name="genvec1">      0.10000000      -0.00000000       0.00000000 </v>
   <v name="genvec2">     -0.00000000       0.10000000      -0.00000000 </v>
   <v name="genvec3">      0.00000000       0.00000000       0.10000000 </v>
   <v name="shift">      0.00000000       0.00000000       0.00000000 </v>
  </generation>
  <varray name="kpointlist" >
   <v>       0.00000000       0.00000000       0.00000000 </v>
   <v>       0.10000000       0.00000000      -0.00000000 </v>
   <v>       0.20000000       0.00000000      -0.00000000 </v>
   <v>       0.30000000       0.00000000       0.00000000 </v>
   <v>       0.40000000       0.00000000      -0.00000000 </v>
   <v>       0.50000000       0.00000000      -0.00000000 </v>
   <v>       0.10000000       0.10000000      -0.00000000 </v>
   <v>       0.20000000       0.10000000       0.00000000 </v>
   <v>       0.30000000       0.10000000      -0.00000000 </v>
   <v>       0.40000000       0.10000000      -0.00000000 </v>
   <v>       0.50000000       0.10000000      -0.00000000 </v>
   <v>      -0.40000000       0.10000000       0.00000000 </v>
   <v>      -0.30000000       0.10000000      -0.00000000 </v>
   <v>      -0.20000000       0.10000000      -0.00000000 </v>
   <v>      -0.10000000       0.10000000       0.00000000 </v>
   <v>       0.20000000       0.20000000      -0.00000000 </v>
   <v>       0.30000000       0.20000000       0.00000000 </v>
   <v>       0.40000000       0.20000000       0.00000000 </v>
   <v>       0.50000000       0.20000000       0.00000000 </v>
   <v>      -0.40000000       0.20000000      -0.00000000 </v>
   <v>      -0.30000000       0.20000000       0.00000000 </v>
   <v>      -0.20000000       0.20000000       0.00000000 </v>
   <v>       0.30000000       0.30000000      -0.00000000 </v>
   <v>       0.40000000       0.30000000       0.00000000 </v>
   <v>       0.50000000       0.30000000       0.00000000 </v>
   <v>      -0.40000000       0.30000000      -0.00000000 </v>
   <v>      -0.30000000       0.30000000      -0.00000000 </v>
   <v>       0.40000000       0.40000000      -0.00000000 </v>
   <v>       0.50000000       0.40000000      -0.00000000 </v>
   <v>      -0.40000000       0.40000000       0.00000000 </v>
   <v>       0.50000000       0.50000000      -0.00000000 </v>
   <v>       0.30000000       0.20000000       0.10000000 </v>
   <v>       0.40000000       0.20000000       0.10000000 </v>
   <v>       0.50000000       0.20000000       0.10000000 </v>
   <v>      -0.40000000       0.20000000       0.10000000 </v>
   <v>       0.40000000       0.30000000       0.10000000 </v>
   <v>       0.50000000       0.30000000       0.10000000 </v>
   <v>      -0.40000000       0.30000000       0.10000000 </v>
   <v>      -0.30000000       0.30000000       0.10000000 </v>
   <v>      -0.20000000       0.30000000       0.10000000 </v>
   <v>       0.50000000       0.40000000       0.10000000 </v>
   <v>      -0.40000000       0.40000000       0.10000000 </v>
   <v>      -0.30000000       0.40000000       0.10000000 </v>
   <v>      -0.40000000       0.50000000       0.10000000 </v>
   <v>      -0.40000000       0.40000000       0.20000000 </v>
   <v>      -0.30000000       0.40000000       0.20000000 </v>
   <v>      -0.30000000       0.50000000       0.20000000 </v>
  </varray>
  <varray name="weights" >
   <v>       0.00100000 </v>
   <v>       0.00800000 </v>
   <v>       0.00800000 </v>
   <v>       0.00800000 </v>
   <v>       0.00800000 </v>
   <v>       0.00400000 </v>
   <v>       0.00600000 </v>
   <v>       0.02400000 </v>
   <v>       0.02400000 </v>
   <v>       0.02400000 </v>
   <v>       0.02400000 </v>
   <v>       0.02400000 </v>
   <v>       0.02400000 </v>
   <v>       0.02400000 </v>
   <v>       0.01200000 </v>
   <v>       0.00600000 </v>
   <v>       0.02400000 </v>
   <v>       0.02400000 </v>
   <v>       0.02400000 </v>
   <v>       0.02400000 </v>
   <v>       0.02400000 </v>
   <v>       0.01200000 </v>
   <v>       0.00600000 </v>
   <v>       0.02400000 </v>
   <v>       0.02400000 </v>
   <v>       0.02400000 </v>
   <v>       0.01200000 </v>
   <v>       0.00600000 </v>
   <v>       0.02400000 </v>
   <v>       0.01200000 </v>
   <v>       0.00300000 </v>
   <v>       0.02400000 </v>
   <v>       0.04800000 </v>
   <v>       0.04800000 </v>
   <v>       0.02400000 </v>
   <v>       0.02400000 </v>
   <v>       0.04800000 </v>
   <v>       0.04800000 </v>
   <v>       0.04800000 </v>
   <v>       0.02400000 </v>
   <v>       0.02400000 </v>
   <v>       0.04800000 </v>
   <v>       0.02400000 </v>
   <v>       0.01200000 </v>
   <v>       0.02400000 </v>
   <v>       0.02400000 </v>
   <v>       0.01200000 </v>
  </varray>
 </kpoints>
 <parameters>
  <separator name="general" >
   <i type="string" name="SYSTEM">InN</i>
   <i type="logical" name="LCOMPAT"> F  </i>
  </separator>
  <separator name="electronic" >
   <i type="string" name="PREC">accura</i>
   <i name="ENMAX">    800.00000000</i>
   <i name="ENAUG">    627.11200000</i>
   <i name="EDIFF">      0.00000010</i>
   <i type="int" name="IALGO">    38</i>
   <i type="int" name="IWAVPR">    11</i>
   <i type="int" name="NBANDS">     8</i>
   <i name="NELECT">      8.00000000</i>
   <i type="int" name="TURBO">     0</i>
   <i type="int" name="IRESTART">     0</i>
   <i type="int" name="NREBOOT">     0</i>
   <i type="int" name="NMIN">     0</i>
   <i name="EREF">      0.00000000</i>
   <separator name="electronic smearing" >
    <i type="int" name="ISMEAR">     0</i>
    <i name="SIGMA">      0.01000000</i>
    <i name="KSPACING">      0.50000000</i>
    <i type="logical" name="KGAMMA"> T  </i>
   </separator>
   <separator name="electronic projectors" >
    <i type="logical" name="LREAL"> F  </i>
    <v name="ROPT">      0.00000000      0.00000000</v>
    <i type="int" name="LMAXPAW">  -100</i>
    <i type="int" name="LMAXMIX">     6</i>
    <i type="logical" name="NLSPLINE"> F  </i>
   </separator>
   <separator name="electronic startup" >
    <i type="int" name="ISTART">     0</i>
    <i type="int" name="ICHARG">     2</i>
    <i type="int" name="INIWAV">     1</i>
   </separator>
   <separator name="electronic spin" >
    <i type="int" name="ISPIN">     1</i>
    <i type="logical" name="LNONCOLLINEAR"> F  </i>
    <v name="MAGMOM">      1.00000000      1.00000000</v>
    <i name="NUPDOWN">     -1.00000000</i>
    <i type="logical" name="LSORBIT"> F  </i>
    <v name="SAXIS">      0.00000000      0.00000000      1.00000000</v>
    <i type="logical" name="LSPIRAL"> F  </i>
    <v name="QSPIRAL">      0.00000000      0.00000000      0.00000000</v>
    <i type="logical" name="LZEROZ"> F  </i>
   </separator>
   <separator name="electronic exchange-correlation" >
    <i type="logical" name="LASPH"> T  </i>
    <i type="logical" name="LMETAGGA"> F  </i>
   </separator>
   <separator name="electronic convergence" >
    <i type="int" name="NELM">   100</i>
    <i type="int" name="NELMDL">    -8</i>
    <i type="int" name="NELMIN">     6</i>
    <i name="ENINI">    800.00000000</i>
    <separator name="electronic convergence detail" >
     <i type="logical" name="LDIAG"> T  </i>
     <i type="logical" name="LSUBROT"> F  </i>
     <i name="WEIMIN">      0.00100000</i>
     <i name="EBREAK">      0.00000000</i>
     <i name="DEPER">      0.30000000</i>
     <i type="int" name="NRMM">     4</i>
     <i name="TIME">      0.40000000</i>
    </separator>
   </separator>
   <separator name="electronic mixer" >
    <i name="AMIX">      0.20000000</i>
    <i name="BMIX">      0.00100000</i>
    <i name="AMIN">      0.10000000</i>
    <i name="AMIX_MAG">      0.80000000</i>
    <i name="BMIX_MAG">      0.00100000</i>
    <separator name="electronic mixer details" >
     <i type="int" name="IMIX">     4</i>
     <i type="logical" name="MIXFIRST"> F  </i>
     <i type="int" name="MAXMIX">   -45</i>
     <i name="WC">    100.00000000</i>
     <i type="int" name="INIMIX">     1</i>
     <i type="int" name="MIXPRE">     1</i>
     <i type="int" name="MREMOVE">     5</i>
    </separator>
   </separator>
   <separator name="electronic dipolcorrection" >
    <i type="logical" name="LDIPOL"> F  </i>
    <i type="logical" name="LMONO"> F  </i>
    <i type="int" name="IDIPOL">     0</i>
    <i name="EPSILON">      1.00000000</i>
    <v name="DIPOL">   -100.00000000   -100.00000000   -100.00000000</v>
    <i name="EFIELD">      0.00000000</i>
   </separator>
  </separator>
  <separator name="grids" >
   <i type="int" name="NGX">    36</i>
   <i type="int" name="NGY">    36</i>
   <i type="int" name="NGZ">    36</i>
   <i type="int" name="NGXF">    72</i>
   <i type="int" name="NGYF">    72</i>
   <i type="int" name="NGZF">    72</i>
   <i type="logical" name="ADDGRID"> T  </i>
  </separator>
  <separator name="ionic" >
   <i type="int" name="NSW">   100</i>
   <i type="int" name="IBRION">     2</i>
   <i type="int" name="MDALGO">     0</i>
   <i type="int" name="ISIF">     3</i>
   <i name="PSTRESS">      0.00000000</i>
   <i name="EDIFFG">     -0.00100000</i>
   <i type="int" name="NFREE">     1</i>
   <i name="POTIM">      0.50000000</i>
   <i name="SMASS">     -3.00000000</i>
   <i name="SCALEE">      1.00000000</i>
  </separator>
  <separator name="ionic md" >
   <i name="TEBEG">      0.00010000</i>
   <i name="TEEND">      0.00010000</i>
   <i type="int" name="NBLOCK">     1</i>
   <i type="int" name="KBLOCK">   100</i>
   <i type="int" name="NPACO">   256</i>
   <i name="APACO">     16.00000000</i>
  </separator>
  <separator name="symmetry" >
   <i type="int" name="ISYM">     2</i>
   <i name="SYMPREC">      0.00001000</i>
  </separator>
  <separator name="dos" >
   <i type="int" name="LORBIT">    10</i>
   <v name="RWIGS">     -1.00000000     -1.00000000</v>
   <i type="int" name="NEDOS">    11</i>
   <i name="EMIN">     10.00000000</i>
   <i name="EMAX">    -10.00000000</i>
   <i name="EFERMI">      0.00000000</i>
  </separator>
  <separator name="writing" >
   <i type="int" name="NWRITE">     1</i>
   <i type="logical" name="LWAVE"> F  </i>
   <i type="logical" name="LDOWNSAMPLE"> F  </i>
   <i type="logical" name="LCHARG"> F  </i>
   <i type="logical" name="LPARD"> F  </i>
   <i type="logical" name="LVTOT"> F  </i>
   <i type="logical" name="LVHAR"> F  </i>
   <i type="logical" name="LELF"> F  </i>
   <i type="logical" name="LOPTICS"> F  </i>
   <v name="STM">      0.00000000      0.00000000      0.00000000      0.00000000      0.00000000      0.00000000      0.00000000</v>
  </separator>
  <separator name="performance" >
   <i type="int" name="NPAR">     2</i>
   <i type="int" name="NSIM">     4</i>
   <i type="int" name="NBLK">    -1</i>
   <i type="logical" name="LPLANE"> T  </i>
   <i type="logical" name="LSCALAPACK"> T  </i>
   <i type="logical" name="LSCAAWARE"> F  </i>
   <i type="logical" name="LSCALU"> F  </i>
   <i type="logical" name="LASYNC"> F  </i>
   <i type="logical" name="LORBITALREAL"> F  </i>
  </separator>
  <separator name="miscellaneous" >
   <i type="int" name="IDIOT">     3</i>
   <i type="int" name="ISPECIAL">     0</i>
   <i type="logical" name="LMUSIC"> F  </i>
   <v name="POMASS">    114.82000000     14.00100000</v>
   <v name="DARWINR">      0.00000000      0.00000000</v>
   <v name="DARWINV">      1.00000000      1.00000000</v>
   <i type="logical" name="LCORR"> T  </i>
  </separator>
  <i type="logical" name="GGA_COMPAT"> T  </i>
  <i type="logical" name="LBERRY"> F  </i>
  <i type="int" name="ICORELEVEL">     0</i>
  <i type="logical" name="LDAU"> F  </i>
  <i type="int" name="I_CONSTRAINED_M">     0</i>
  <separator name="electronic exchange-correlation" >
   <i type="string" name="GGA">--</i>
   <i type="int" name="VOSKOWN">     0</i>
   <i type="logical" name="LHFCALC"> F  </i>
   <i type="string" name="PRECFOCK"></i>
   <i type="logical" name="LSYMGRAD"> F  </i>
   <i type="logical" name="LHFONE"> F  </i>
   <i type="logical" name="LRHFCALC"> F  </i>
   <i type="logical" name="LTHOMAS"> F  </i>
   <i type="logical" name="LMODELHF"> F  </i>
   <i name="ENCUT4O">     -1.00000000</i>
   <i type="int" name="EXXOEP">     0</i>
   <i type="int" name="FOURORBIT">     0</i>
   <i name="AEXX">      0.00000000</i>
   <i name="HFALPHA">      0.00000000</i>
   <i name="MCALPHA">      0.00000000</i>
   <i name="ALDAX">      1.00000000</i>
   <i name="AGGAX">      1.00000000</i>
   <i name="ALDAC">      1.00000000</i>
   <i name="AGGAC">      1.00000000</i>
   <i type="int" name="NKREDX">     1</i>
   <i type="int" name="NKREDY">     1</i>
   <i type="int" name="NKREDZ">     1</i>
   <i type="logical" name="SHIFTRED"> F  </i>
   <i type="logical" name="ODDONLY"> F  </i>
   <i type="logical" name="EVENONLY"> F  </i>
   <i type="int" name="LMAXFOCK">     0</i>
   <i type="int" name="NMAXFOCKAE">     0</i>
   <i type="logical" name="LFOCKAEDFT"> F  </i>
   <i name="HFSCREEN">      0.00000000</i>
   <i name="HFSCREENC">      0.00000000</i>
   <i type="int" name="NBANDSGWLOW">     0</i>
  </separator>
  <separator name="vdW DFT" >
   <i type="logical" name="LUSE_VDW"> F  </i>
   <i name="Zab_VDW">     -0.84910000</i>
   <i name="PARAM1">      0.12340000</i>
   <i name="PARAM2">      1.00000000</i>
   <i name="PARAM3">      0.00000000</i>
  </separator>
  <separator name="model GW" >
   <i type="int" name="MODEL_GW">     0</i>
   <i name="MODEL_EPS0">      9.96544936</i>
   <i name="MODEL_ALPHA">      1.00000000</i>
  </separator>
  <separator name="linear response parameters" >
   <i type="logical" name="LEPSILON"> F  </i>
   <i type="logical" name="LRPA"> F  </i>
   <i type="logical" name="LNABLA"> F  </i>
   <i type="logical" name="LVEL"> F  </i>
   <i type="int" name="KINTER">     0</i>
   <i name="CSHIFT">      0.10000000</i>
   <i name="OMEGAMAX">     -1.00000000</i>
   <i name="DEG_THRESHOLD">      0.00200000</i>
   <i name="RTIME">     -0.10000000</i>
   <i name="WPLASMAI">      0.00000000</i>
   <v name="DFIELD">      0.00000000      0.00000000      0.00000000</v>
   <v name="WPLASMA">      0.00000000      0.00000000      0.00000000      0.00000000      0.00000000      0.00000000      0.00000000      0.00000000      0.00000000</v>
  </separator>
  <separator name="orbital magnetization" >
   <i type="logical" name="NUCIND"> F  </i>
   <v name="MAGPOS">      0.00000000      0.00000000      0.00000000</v>
   <i type="logical" name="LNICSALL"> T  </i>
   <i type="logical" name="ORBITALMAG"> F  </i>
   <i type="logical" name="LMAGBLOCH"> F  </i>
   <i type="logical" name="LCHIMAG"> F  </i>
   <i type="logical" name="LGAUGE"> T  </i>
   <i type="int" name="MAGATOM">     0</i>
   <v name="MAGDIPOL">      0.00000000      0.00000000      0.00000000</v>
   <v name="AVECCONST">      0.00000000      0.00000000      0.00000000</v>
  </separator>
  <separator name="response functions" >
   <i type="logical" name="LADDER"> F  </i>
   <i type="logical" name="LRPAFORCE"> F  </i>
   <i type="logical" name="LFXC"> F  </i>
   <i type="logical" name="LHARTREE"> T  </i>
   <i type="int" name="IBSE">     0</i>
   <v type="int" name="KPOINT">    -1     0     0     0</v>
   <i type="logical" name="LTCTE"> F  </i>
   <i type="logical" name="LTETE"> F  </i>
   <i type="logical" name="LTRIPLET"> F  </i>
   <i type="logical" name="LFXCEPS"> F  </i>
   <i type="logical" name="LFXHEG"> F  </i>
   <i type="int" name="NATURALO">     2</i>
   <i type="logical" name="L2ORDER"> F  </i>
   <i type="logical" name="LMP2LT"> F  </i>
   <i type="logical" name="LUSEW"> F  </i>
   <i name="ENCUTGW">     -2.00000000</i>
   <i name="ENCUTGWSOFT">     -2.00000000</i>
   <i name="ENCUTLF">     -1.00000000</i>
   <i type="int" name="LMAXMP2">    -1</i>
   <i name="SCISSOR">      0.00000000</i>
   <i type="int" name="NOMEGA">     0</i>
   <i type="int" name="NOMEGAR">     0</i>
   <i type="int" name="NBANDSGW">    -1</i>
   <i type="int" name="NBANDSO">    -1</i>
   <i type="int" name="NBANDSV">    -1</i>
   <i type="int" name="NELM">   100</i>
   <i type="int" name="NELMHF">     1</i>
   <i type="int" name="DIM">     3</i>
   <i type="int" name="ANTIRES">     0</i>
   <i name="OMEGAMAX">    -30.00000000</i>
   <i name="OMEGAMIN">    -30.00000000</i>
   <i name="OMEGATL">   -200.00000000</i>
   <i type="int" name="OMEGAGRID">   140</i>
   <i name="CSHIFT">     -0.10000000</i>
   <i type="logical" name="SELFENERGY"> F  </i>
   <i type="logical" name="LSPECTRAL"> F  </i>
   <i type="logical" name="LSPECTRALGW"> F  </i>
   <i type="logical" name="LSINGLES"> F  </i>
   <i type="logical" name="LFERMIGW"> F  </i>
   <i type="logical" name="ODDONLYGW"> F  </i>
   <i type="logical" name="EVENONLYGW"> F  </i>
   <i type="int" name="NKREDLFX">     1</i>
   <i type="int" name="NKREDLFY">     1</i>
   <i type="int" name="NKREDLFZ">     1</i>
   <i type="int" name="MAXMEM">  2800</i>
   <i type="int" name="TELESCOPE">     0</i>
   <i type="int" name="TAUPAR">     1</i>
   <i type="int" name="OMEGAPAR">    -1</i>
   <i name="LAMBDA">      1.00000000</i>
  </separator>
  <separator name="External order field" >
   <i name="OFIELD_KAPPA">      0.00000000</i>
   <v name="OFIELD_K">      0.00000000      0.00000000      0.00000000</v>
   <i name="OFIELD_Q6_NEAR">      0.00000000</i>
   <i name="OFIELD_Q6_FAR">      0.00000000</i>
   <i name="OFIELD_A">      0.00000000</i>
  </separator>
 </parameters>
 <atominfo>
  <atoms>       2 </atoms>
  <types>       2 </types>
  <array name="atoms" >
   <dimension dim="1">ion</dimension>
   <field type="string">element</field>
   <field type="int">atomtype</field>
   <set>
    <rc><c>In</c><c>   1</c></rc>
    <rc><c>N </c><c>   2</c></rc>
   </set>
  </array>
  <array name="atomtypes" >
   <dimension dim="1">type</dimension>
   <field type="int">atomspertype</field>
   <field type="string">element</field>
   <field>mass</field>
   <field>valence</field>
   <field type="string">pseudopotential</field>
   <set>
    <rc><c>   1</c><c>In</c><c>    114.82000000</c><c>      3.00000000</c><c>  PAW_PBE In 08Apr2002                  </c></rc>
    <rc><c>   1</c><c>N </c><c>     14.00100000</c><c>      5.00000000</c><c>  PAW_PBE N 08Apr2002                   </c></rc>
   </set>
  </array>
 </atominfo>
 <structure name="initialpos" >
  <crystal>
   <varray name="basis" >
    <v>       0.00000000       2.55141955       2.55141955 </v>
    <v>       2.55141955       0.00000000       2.55141955 </v>
    <v>       2.55141955       2.55141955       0.00000000 </v>
   </varray>
   <i name="volume">     33.21816452 </i>
   <varray name="rec_basis" >
    <v>      -0.19596934       0.19596934       0.19596934 </v>
    <v>       0.19596934      -0.19596934       0.19596934 </v>
    <v>       0.19596934       0.19596934      -0.19596934 </v>
   </varray>
  </crystal>
  <varray name="positions" >
   <v>       0.00000000       0.00000000       0.00000000 </v>
   <v>       0.25000000       0.25000000       0.25000000 </v>
  </varray>
 </structure>
 <calculation>
  <scstep>
   <time name="dav">    0.10    0.10</time>
   <time name="total">    0.29    0.29</time>
   <energy>
    <i name="alphaZ">      4.93650165 </i>
    <i name="ewald">   -253.89263616 </i>
    <i name="hartreedc">    -75.46852551 </i>
    <i name="XCdc">    -36.64671883 </i>
    <i name="pawpsdc">    299.15547576 </i>
    <i name="pawaedc">   -240.96704793 </i>
    <i name="eentropy">     -0.00017176 </i>
    <i name="bandstr">     16.12377212 </i>
    <i name="atom">    318.33649992 </i>
    <i name="e_fr_energy">     31.57714927 </i>
    <i name="e_wo_entrp">     31.57732103 </i>
    <i name="e_0_energy">     31.57723515 </i>
   </energy>
  </scstep>
  <scstep>
   <time name="dav">    0.14    0.14</time>
   <time name="total">    0.14    0.14</time>
   <energy>
    <i name="e_fr_energy">    -10.88839604 </i>
    <i name="e_wo_entrp">    -10.88839604 </i>
    <i name="e_0_energy">    -10.88839604 </i>
   </energy>
  </scstep>
  <scstep>
   <time name="dav">    0.12    0.12</time>
   <time name="total">    0.12    0.12</time>
   <energy>
    <i name="e_fr_energy">    -12.89885678 </i>
    <i name="e_wo_entrp">    -12.89885678 </i>
    <i name="e_0_energy">    -12.89885678 </i>
   </energy>
  </scstep>
  <scstep>
   <time name="dav">    0.15    0.15</time>
   <time name="total">    0.15    0.15</time>
   <energy>
    <i name="e_fr_energy">    -12.90911088 </i>
    <i name="e_wo_entrp">    -12.90911088 </i>
    <i name="e_0_energy">    -12.90911088 </i>
   </energy>
  </scstep>
  <scstep>
   <time name="dav">    0.12    0.12</time>
   <time name="total">    0.12    0.12</time>
   <energy>
    <i name="e_fr_energy">    -12.90912997 </i>
    <i name="e_wo_entrp">    -12.90912997 </i>
    <i name="e_0_energy">    -12.90912997 </i>
   </energy>
  </scstep>
  <scstep>
   <time name="dav">    0.14    0.14</time>
   <time name="total">    0.14    0.14</time>
   <energy>
    <i name="e_fr_energy">    -12.90912999 </i>
    <i name="e_wo_entrp">    -12.90912999 </i>
    <i name="e_0_energy">    -12.90912999 </i>
   </energy>
  </scstep>
  <scstep>
   <time name="dav">    0.13    0.13</time>
   <time name="total">    0.13    0.13</time>
   <energy>
    <i name="e_fr_energy">    -12.90912999 </i>
    <i name="e_wo_entrp">    -12.90912999 </i>
    <i name="e_0_energy">    -12.90912999 </i>
   </energy>
  </scstep>
  <scstep>
   <time name="dav">    0.10    0.10</time>
   <time name="total">    0.21    0.21</time>
   <energy>
    <i name="e_fr_energy">    -12.90912999 </i>
    <i name="e_wo_entrp">    -12.90912999 </i>
    <i name="e_0_energy">    -12.90912999 </i>
   </energy>
  </scstep>
  <scstep>
   <time name="dav">    0.12    0.12</time>
   <time name="total">    0.41    0.41</time>
   <energy>
    <i name="e_fr_energy">    -10.92775352 </i>
    <i name="e_wo_entrp">    -10.92775352 </i>
    <i name="e_0_energy">    -10.92775352 </i>
   </energy>
  </scstep>
  <scstep>
   <time name="dav">    0.12    0.12</time>
   <time name="total">    0.42    0.42</time>
   <energy>
    <i name="e_fr_energy">    -10.67877664 </i>
    <i name="e_wo_entrp">    -10.67876122 </i>
    <i name="e_0_energy">    -10.67876893 </i>
   </energy>
  </scstep>
  <scstep>
   <time name="dav">    0.11    0.11</time>
   <time name="total">    0.41    0.41</time>
   <energy>
    <i name="e_fr_energy">    -10.62719481 </i>
    <i name="e_wo_entrp">    -10.62717938 </i>
    <i name="e_0_energy">    -10.62718710 </i>
   </energy>
  </scstep>
  <scstep>
   <time name="dav">    0.12    0.12</time>
   <time name="total">    0.42    0.42</time>
   <energy>
    <i name="e_fr_energy">    -10.62388558 </i>
    <i name="e_wo_entrp">    -10.62387016 </i>
    <i name="e_0_energy">    -10.62387787 </i>
   </energy>
  </scstep>
  <scstep>
   <time name="dav">    0.12    0.12</time>
   <time name="total">    0.42    0.42</time>
   <energy>
    <i name="e_fr_energy">    -10.62378423 </i>
    <i name="e_wo_entrp">    -10.62376880 </i>
    <i name="e_0_energy">    -10.62377651 </i>
   </energy>
  </scstep>
  <scstep>
   <time name="dav">    0.12    0.12</time>
   <time name="total">    0.41    0.41</time>
   <energy>
    <i name="e_fr_energy">    -10.62380360 </i>
    <i name="e_wo_entrp">    -10.62378818 </i>
    <i name="e_0_energy">    -10.62379589 </i>
   </energy>
  </scstep>
  <scstep>
   <time name="dav">    0.12    0.12</time>
   <time name="total">    0.42    0.42</time>
   <energy>
    <i name="e_fr_energy">    -10.62380076 </i>
    <i name="e_wo_entrp">    -10.62378533 </i>
    <i name="e_0_energy">    -10.62379305 </i>
   </energy>
  </scstep>
  <scstep>
   <time name="dav">    0.13    0.13</time>
   <time name="total">    0.43    0.43</time>
   <energy>
    <i name="e_fr_energy">    -10.62379959 </i>
    <i name="e_wo_entrp">    -10.62378416 </i>
    <i name="e_0_energy">    -10.62379187 </i>
   </energy>
  </scstep>
  <scstep>
   <time name="dav">    0.10    0.10</time>
   <time name="total">    0.28    0.28</time>
   <energy>
    <i name="alphaZ">      4.93650165 </i>
    <i name="ewald">   -253.89263616 </i>
    <i name="hartreedc">    -92.18511729 </i>
    <i name="XCdc">    -35.11892204 </i>
    <i name="pawpsdc">    739.90260642 </i>
    <i name="pawaedc">   -682.35547512 </i>
    <i name="eentropy">     -0.00001543 </i>
    <i name="bandstr">    -10.24724153 </i>
    <i name="atom">    318.33649992 </i>
    <i name="e_fr_energy">    -10.62379957 </i>
    <i name="e_wo_entrp">    -10.62378414 </i>
    <i name="e_0_energy">    -10.62379186 </i>
   </energy>
  </scstep>
  <structure>
   <crystal>
    <varray name="basis" >
     <v>       0.00000000       2.55141955       2.55141955 </v>
     <v>       2.55141955       0.00000000       2.55141955 </v>
     <v>       2.55141955       2.55141955       0.00000000 </v>
    </varray>
    <i name="volume">     33.21816452 </i>
    <varray name="rec_basis" >
     <v>      -0.19596934       0.19596934       0.19596934 </v>
     <v>       0.19596934      -0.19596934       0.19596934 </v>
     <v>       0.19596934       0.19596934      -0.19596934 </v>
    </varray>
   </crystal>
   <varray name="positions" >
    <v>       0.00000000       0.00000000       0.00000000 </v>
    <v>       0.25000000       0.25000000       0.25000000 </v>
   </varray>
  </structure>
  <varray name="forces" >
   <v>      -0.00000000      -0.00000000      -0.00000000 </v>
   <v>       0.00000000       0.00000000       0.00000000 </v>
  </varray>
  <varray name="stress" >
   <v>      -0.01819636       0.00000000       0.00000000 </v>
   <v>       0.00000000      -0.01819636       0.00000000 </v>
   <v>      -0.00000000       0.00000000      -0.01819636 </v>
  </varray>
  <energy>
   <i name="e_fr_energy">    -10.62379957 </i>
   <i name="e_wo_entrp">    -10.62379186 </i>
   <i name="e_0_energy">     -0.00001543 </i>
  </energy>
  <time name="totalsc">    7.80    7.80</time>
  <eigenvalues>
   <array>
    <dimension dim="1">band</dimension>
    <dimension dim="2">kpoint</dimension>
    <dimension dim="3">spin</dimension>
    <field>eigene</field>
    <field>occ</field>
    <set>
     <set comment="spin 1">
      <set comment="kpoint 1">
       <r>  -10.3170    1.0000 </r>
       <r>    3.1885    1.0000 </r>
       <r>    3.7460    0.6667 </r>
       <r>    3.7460    0.6667 </r>
       <r>    3.7460    0.6667 </r>
       <r>   12.8701    0.0000 </r>
       <r>   12.8701    0.0000 </r>
       <r>   12.8701    0.0000 </r>
      </set>
      <set comment="kpoint 2">
       <r>  -10.2107    1.0000 </r>
       <r>    2.2759    1.0000 </r>
       <r>    3.6657    1.0000 </r>
       <r>    3.6657    1.0000 </r>
       <r>    4.5186    0.0000 </r>
       <r>   12.2421    0.0000 </r>
       <r>   12.9711    0.0000 </r>
       <r>   12.9711    0.0000 </r>
      </set>
      <set comment="kpoint 3">
       <r>   -9.9089    1.0000 </r>
       <r>    1.0090    1.0000 </r>
       <r>    3.4648    1.0000 </r>
       <r>    3.4648    1.0000 </r>
       <r>    5.3882    0.0000 </r>
       <r>   11.1966    0.0000 </r>
       <r>   13.1258    0.0000 </r>
       <r>   13.1258    0.0000 </r>
      </set>
      <set comment="kpoint 4">
       <r>   -9.4747    1.0000 </r>
       <r>   -0.2657    1.0000 </r>
       <r>    3.2320    1.0000 </r>
       <r>    3.2320    1.0000 </r>
       <r>    6.0829    0.0000 </r>
       <r>   10.4588    0.0000 </r>
       <r>   13.0928    0.0000 </r>
       <r>   13.0928    0.0000 </r>
      </set>
      <set comment="kpoint 5">
       <r>   -9.0508    1.0000 </r>
       <r>   -1.2695    1.0000 </r>
       <r>    3.0539    1.0000 </r>
       <r>    3.0539    1.0000 </r>
       <r>    6.4962    0.0000 </r>
       <r>   10.1395    0.0000 </r>
       <r>   12.9345    0.0000 </r>
       <r>   12.9345    0.0000 </r>
      </set>
      <set comment="kpoint 6">
       <r>   -8.8640    1.0000 </r>
       <r>   -1.6636    1.0000 </r>
       <r>    2.9881    1.0000 </r>
       <r>    2.9881    1.0000 </r>
       <r>    6.6211    0.0000 </r>
       <r>   10.0750    0.0000 </r>
       <r>   12.8558    0.0000 </r>
       <r>   12.8558    0.0000 </r>
      </set>
      <set comment="kpoint 7">
       <r>  -10.1755    1.0000 </r>
       <r>    2.1985    1.0000 </r>
       <r>    3.5212    1.0000 </r>
       <r>    3.5212    1.0000 </r>
       <r>    4.7884    0.0000 </r>
       <r>   12.1077    0.0000 </r>
       <r>   12.9795    0.0000 </r>
       <r>   12.9795    0.0000 </r>
      </set>
      <set comment="kpoint 8">
       <r>   -9.9391    1.0000 </r>
       <r>    1.3000    1.0000 </r>
       <r>    3.2721    1.0000 </r>
       <r>    3.3239    1.0000 </r>
       <r>    5.5108    0.0000 </r>
       <r>   11.3130    0.0000 </r>
       <r>   12.9656    0.0000 </r>
       <r>   13.1311    0.0000 </r>
      </set>
      <set comment="kpoint 9">
       <r>   -9.5468    1.0000 </r>
       <r>    0.1359    1.0000 </r>
       <r>    3.0241    1.0000 </r>
       <r>    3.0534    1.0000 </r>
       <r>    6.2569    0.0000 </r>
       <r>   10.5865    0.0000 </r>
       <r>   12.6409    0.0000 </r>
       <r>   13.2042    0.0000 </r>
      </set>
      <set comment="kpoint 10">
       <r>   -9.1096    1.0000 </r>
       <r>   -0.9220    1.0000 </r>
       <r>    2.7575    1.0000 </r>
       <r>    2.8675    1.0000 </r>
       <r>    6.8284    0.0000 </r>
       <r>   10.1297    0.0000 </r>
       <r>   12.4143    0.0000 </r>
       <r>   13.1216    0.0000 </r>
      </set>
      <set comment="kpoint 11">
       <r>   -8.8279    1.0000 </r>
       <r>   -1.5188    1.0000 </r>
       <r>    2.5363    1.0000 </r>
       <r>    2.8509    1.0000 </r>
       <r>    7.1045    0.0000 </r>
       <r>    9.9424    0.0000 </r>
       <r>   12.3527    0.0000 </r>
       <r>   13.0234    0.0000 </r>
      </set>
      <set comment="kpoint 12">
       <r>   -8.8905    1.0000 </r>
       <r>   -1.3908    1.0000 </r>
       <r>    2.4587    1.0000 </r>
       <r>    2.9771    1.0000 </r>
       <r>    7.0678    0.0000 </r>
       <r>    9.9914    0.0000 </r>
       <r>   12.2984    0.0000 </r>
       <r>   13.0490    0.0000 </r>
      </set>
      <set comment="kpoint 13">
       <r>   -9.2507    1.0000 </r>
       <r>   -0.6046    1.0000 </r>
       <r>    2.5596    1.0000 </r>
       <r>    3.2053    1.0000 </r>
       <r>    6.6935    0.0000 </r>
       <r>   10.3067    0.0000 </r>
       <r>   12.2807    0.0000 </r>
       <r>   13.2115    0.0000 </r>
      </set>
      <set comment="kpoint 14">
       <r>   -9.6908    1.0000 </r>
       <r>    0.5051    1.0000 </r>
       <r>    2.8427    1.0000 </r>
       <r>    3.4583    1.0000 </r>
       <r>    6.0113    0.0000 </r>
       <r>   10.9158    0.0000 </r>
       <r>   12.4406    0.0000 </r>
       <r>   13.3276    0.0000 </r>
      </set>
      <set comment="kpoint 15">
       <r>  -10.0391    1.0000 </r>
       <r>    1.5731    1.0000 </r>
       <r>    3.2712    1.0000 </r>
       <r>    3.6391    1.0000 </r>
       <r>    5.1834    0.0000 </r>
       <r>   11.6747    0.0000 </r>
       <r>   12.7706    0.0000 </r>
       <r>   13.1718    0.0000 </r>
      </set>
      <set comment="kpoint 16">
       <r>   -9.7761    1.0000 </r>
       <r>    1.0700    1.0000 </r>
       <r>    2.9686    1.0000 </r>
       <r>    2.9686    1.0000 </r>
       <r>    5.9754    0.0000 </r>
       <r>   10.7552    0.0000 </r>
       <r>   13.3291    0.0000 </r>
       <r>   13.3291    0.0000 </r>
      </set>
      <set comment="kpoint 17">
       <r>   -9.4509    1.0000 </r>
       <r>    0.3301    1.0000 </r>
       <r>    2.6162    1.0000 </r>
       <r>    2.6803    1.0000 </r>
       <r>    6.5719    0.0000 </r>
       <r>   10.2256    0.0000 </r>
       <r>   12.6584    0.0000 </r>
       <r>   13.5231    0.0000 </r>
      </set>
      <set comment="kpoint 18">
       <r>   -9.0481    1.0000 </r>
       <r>   -0.5333    1.0000 </r>
       <r>    2.1564    1.0000 </r>
       <r>    2.5097    1.0000 </r>
       <r>    7.2397    0.0000 </r>
       <r>    9.9203    0.0000 </r>
       <r>   12.0202    0.0000 </r>
       <r>   13.5533    0.0000 </r>
      </set>
      <set comment="kpoint 19">
       <r>   -8.7277    1.0000 </r>
       <r>   -1.1552    1.0000 </r>
       <r>    1.7267    1.0000 </r>
       <r>    2.5092    1.0000 </r>
       <r>    7.8090    0.0000 </r>
       <r>    9.6516    0.0000 </r>
       <r>   11.8702    0.0000 </r>
       <r>   13.4612    0.0000 </r>
      </set>
      <set comment="kpoint 20">
       <r>   -8.6774    1.0000 </r>
       <r>   -1.2454    1.0000 </r>
       <r>    1.4809    1.0000 </r>
       <r>    2.6770    1.0000 </r>
       <r>    8.0806    0.0000 </r>
       <r>    9.5559    0.0000 </r>
       <r>   11.7018    0.0000 </r>
       <r>   13.3920    0.0000 </r>
      </set>
      <set comment="kpoint 21">
       <r>   -8.9322    1.0000 </r>
       <r>   -0.7895    1.0000 </r>
       <r>    1.5421    1.0000 </r>
       <r>    2.9596    1.0000 </r>
       <r>    7.7384    0.0000 </r>
       <r>   10.0069    0.0000 </r>
       <r>   11.3750    0.0000 </r>
       <r>   13.4247    0.0000 </r>
      </set>
      <set comment="kpoint 22">
       <r>   -9.3299    1.0000 </r>
       <r>   -0.1078    1.0000 </r>
       <r>    2.0246    1.0000 </r>
       <r>    3.2593    1.0000 </r>
       <r>    6.9328    0.0000 </r>
       <r>   10.6806    0.0000 </r>
       <r>   11.4393    0.0000 </r>
       <r>   13.4715    0.0000 </r>
      </set>
      <set comment="kpoint 23">
       <r>   -9.2073    1.0000 </r>
       <r>    0.0518    1.0000 </r>
       <r>    2.3446    1.0000 </r>
       <r>    2.3446    1.0000 </r>
       <r>    6.7369    0.0000 </r>
       <r>    9.7161    0.0000 </r>
       <r>   12.9925    0.0000 </r>
       <r>   13.8760    0.0000 </r>
      </set>
      <set comment="kpoint 24">
       <r>   -8.8806    1.0000 </r>
       <r>   -0.4650    1.0000 </r>
       <r>    1.9090    1.0000 </r>
       <r>    2.1352    1.0000 </r>
       <r>    7.0710    0.0000 </r>
       <r>    9.5531    0.0000 </r>
       <r>   12.4095    0.0000 </r>
       <r>   14.0602    0.0000 </r>
      </set>
      <set comment="kpoint 25">
       <r>   -8.5913    1.0000 </r>
       <r>   -0.8642    1.0000 </r>
       <r>    1.2653    1.0000 </r>
       <r>    2.1162    1.0000 </r>
       <r>    7.6489    0.0000 </r>
       <r>    9.5691    0.0000 </r>
       <r>   12.0910    0.0000 </r>
       <r>   14.0114    0.0000 </r>
      </set>
      <set comment="kpoint 26">
       <r>   -8.4866    1.0000 </r>
       <r>   -0.9650    1.0000 </r>
       <r>    0.7677    1.0000 </r>
       <r>    2.2921    1.0000 </r>
       <r>    8.3145    0.0000 </r>
       <r>    9.4241    0.0000 </r>
       <r>   11.8224    0.0000 </r>
       <r>   13.8300    0.0000 </r>
      </set>
      <set comment="kpoint 27">
       <r>   -8.6291    1.0000 </r>
       <r>   -0.8757    1.0000 </r>
       <r>    0.8123    1.0000 </r>
       <r>    2.6090    1.0000 </r>
       <r>    8.6239    0.0000 </r>
       <r>    9.3364    0.0000 </r>
       <r>   11.3825    0.0000 </r>
       <r>   13.6271    0.0000 </r>
      </set>
      <set comment="kpoint 28">
       <r>   -8.6585    1.0000 </r>
       <r>   -0.7409    1.0000 </r>
       <r>    1.8785    1.0000 </r>
       <r>    1.8785    1.0000 </r>
       <r>    6.7748    0.0000 </r>
       <r>    9.3716    0.0000 </r>
       <r>   12.6149    0.0000 </r>
       <r>   14.4216    0.0000 </r>
      </set>
      <set comment="kpoint 29">
       <r>   -8.4687    1.0000 </r>
       <r>   -0.9502    1.0000 </r>
       <r>    1.4717    1.0000 </r>
       <r>    1.8181    1.0000 </r>
       <r>    6.9954    0.0000 </r>
       <r>    9.4328    0.0000 </r>
       <r>   12.5450    0.0000 </r>
       <r>   14.4761    0.0000 </r>
      </set>
      <set comment="kpoint 30">
       <r>   -8.4011    1.0000 </r>
       <r>   -0.9245    1.0000 </r>
       <r>    0.8592    1.0000 </r>
       <r>    1.9709    1.0000 </r>
       <r>    7.6329    0.0000 </r>
       <r>    9.5665    0.0000 </r>
       <r>   12.3512    0.0000 </r>
       <r>   14.2357    0.0000 </r>
      </set>
      <set comment="kpoint 31">
       <r>   -8.4185    1.0000 </r>
       <r>   -1.0600    1.0000 </r>
       <r>    1.7082    1.0000 </r>
       <r>    1.7082    1.0000 </r>
       <r>    6.6521    0.0000 </r>
       <r>    9.3357    0.0000 </r>
       <r>   12.6263    0.0000 </r>
       <r>   14.6609    0.0000 </r>
      </set>
      <set comment="kpoint 32">
       <r>   -9.6567    1.0000 </r>
       <r>    0.6232    1.0000 </r>
       <r>    2.6760    1.0000 </r>
       <r>    3.2179    1.0000 </r>
       <r>    6.2137    0.0000 </r>
       <r>   10.7937    0.0000 </r>
       <r>   12.3778    0.0000 </r>
       <r>   13.4263    0.0000 </r>
      </set>
      <set comment="kpoint 33">
       <r>   -9.2550    1.0000 </r>
       <r>   -0.2594    1.0000 </r>
       <r>    2.1748    1.0000 </r>
       <r>    2.9843    1.0000 </r>
       <r>    6.9978    0.0000 </r>
       <r>   10.3338    0.0000 </r>
       <r>   11.7936    0.0000 </r>
       <r>   13.4653    0.0000 </r>
      </set>
      <set comment="kpoint 34">
       <r>   -8.8697    1.0000 </r>
       <r>   -1.0477    1.0000 </r>
       <r>    1.9085    1.0000 </r>
       <r>    2.7375    1.0000 </r>
       <r>    7.6149    0.0000 </r>
       <r>    9.8753    0.0000 </r>
       <r>   11.7432    0.0000 </r>
       <r>   13.3306    0.0000 </r>
      </set>
      <set comment="kpoint 35">
       <r>   -8.7026    1.0000 </r>
       <r>   -1.3706    1.0000 </r>
       <r>    1.8329    1.0000 </r>
       <r>    2.6317    1.0000 </r>
       <r>    7.8572    0.0000 </r>
       <r>    9.6615    0.0000 </r>
       <r>   11.8386    0.0000 </r>
       <r>   13.2571    0.0000 </r>
      </set>
      <set comment="kpoint 36">
       <r>   -9.1201    1.0000 </r>
       <r>   -0.1956    1.0000 </r>
       <r>    2.0325    1.0000 </r>
       <r>    2.4924    1.0000 </r>
       <r>    7.1192    0.0000 </r>
       <r>    9.8888    0.0000 </r>
       <r>   12.0930    0.0000 </r>
       <r>   13.7606    0.0000 </r>
      </set>
      <set comment="kpoint 37">
       <r>   -8.7674    1.0000 </r>
       <r>   -0.7327    1.0000 </r>
       <r>    1.5168    1.0000 </r>
       <r>    2.2461    1.0000 </r>
       <r>    7.8151    0.0000 </r>
       <r>    9.7232    0.0000 </r>
       <r>   11.6725    0.0000 </r>
       <r>   13.6458    0.0000 </r>
      </set>
      <set comment="kpoint 38">
       <r>   -8.5536    1.0000 </r>
       <r>   -1.0421    1.0000 </r>
       <r>    1.1403    1.0000 </r>
       <r>    2.1909    1.0000 </r>
       <r>    8.4728    0.0000 </r>
       <r>    9.4359    0.0000 </r>
       <r>   11.6184    0.0000 </r>
       <r>   13.4578    0.0000 </r>
      </set>
      <set comment="kpoint 39">
       <r>   -8.6082    1.0000 </r>
       <r>   -0.9652    1.0000 </r>
       <r>    1.0336    1.0000 </r>
       <r>    2.3808    1.0000 </r>
       <r>    8.6576    0.0000 </r>
       <r>    9.3905    0.0000 </r>
       <r>   11.3711    0.0000 </r>
       <r>   13.4689    0.0000 </r>
      </set>
      <set comment="kpoint 40">
       <r>   -8.8949    1.0000 </r>
       <r>   -0.6332    1.0000 </r>
       <r>    1.3815    1.0000 </r>
       <r>    2.7041    1.0000 </r>
       <r>    7.9258    0.0000 </r>
       <r>    9.9928    0.0000 </r>
       <r>   11.1919    0.0000 </r>
       <r>   13.5499    0.0000 </r>
      </set>
      <set comment="kpoint 41">
       <r>   -8.6142    1.0000 </r>
       <r>   -0.7648    1.0000 </r>
       <r>    1.5807    1.0000 </r>
       <r>    1.8218    1.0000 </r>
       <r>    7.3532    0.0000 </r>
       <r>    9.5335    0.0000 </r>
       <r>   12.2646    0.0000 </r>
       <r>   13.8650    0.0000 </r>
      </set>
      <set comment="kpoint 42">
       <r>   -8.4339    1.0000 </r>
       <r>   -0.8813    1.0000 </r>
       <r>    1.0155    1.0000 </r>
       <r>    1.7518    1.0000 </r>
       <r>    7.9705    0.0000 </r>
       <r>    9.6260    0.0000 </r>
       <r>   12.1448    0.0000 </r>
       <r>   13.3550    0.0000 </r>
      </set>
      <set comment="kpoint 43">
       <r>   -8.4326    1.0000 </r>
       <r>   -0.8572    1.0000 </r>
       <r>    0.6556    1.0000 </r>
       <r>    1.9911    1.0000 </r>
       <r>    8.6682    0.0000 </r>
       <r>    9.4501    0.0000 </r>
       <r>   11.6887    0.0000 </r>
       <r>   13.3482    0.0000 </r>
      </set>
      <set comment="kpoint 44">
       <r>   -8.3978    1.0000 </r>
       <r>   -0.9767    1.0000 </r>
       <r>    1.4583    1.0000 </r>
       <r>    1.5100    1.0000 </r>
       <r>    7.2841    0.0000 </r>
       <r>    9.5149    0.0000 </r>
       <r>   12.5922    0.0000 </r>
       <r>   13.6901    0.0000 </r>
      </set>
      <set comment="kpoint 45">
       <r>   -8.5154    1.0000 </r>
       <r>   -0.8207    1.0000 </r>
       <r>    1.0127    1.0000 </r>
       <r>    1.8332    1.0000 </r>
       <r>    8.5764    0.0000 </r>
       <r>    9.6426    0.0000 </r>
       <r>   11.4128    0.0000 </r>
       <r>   13.2778    0.0000 </r>
      </set>
      <set comment="kpoint 46">
       <r>   -8.4120    1.0000 </r>
       <r>   -0.8415    1.0000 </r>
       <r>    0.8422    1.0000 </r>
       <r>    1.6216    1.0000 </r>
       <r>    8.9950    0.0000 </r>
       <r>    9.5368    0.0000 </r>
       <r>   11.4650    0.0000 </r>
       <r>   12.9573    0.0000 </r>
      </set>
      <set comment="kpoint 47">
       <r>   -8.3637    1.0000 </r>
       <r>   -0.8154    1.0000 </r>
       <r>    1.1135    1.0000 </r>
       <r>    1.1748    1.0000 </r>
       <r>    8.5837    0.0000 </r>
       <r>    9.7817    0.0000 </r>
       <r>   12.0139    0.0000 </r>
       <r>   12.5401    0.0000 </r>
      </set>
     </set>
    </set>
   </array>
  </eigenvalues>
  <separator name="orbital magnetization" >
   <v name="MAGDIPOLOUT">      0.00000000      0.00000000      0.00000000</v>
  </separator>
  <dos>
   <i name="efermi">      3.74899981 </i>
   <total>
    <array>
     <dimension dim="1">gridpoints</dimension>
     <dimension dim="2">spin</dimension>
     <field>energy</field>
     <field>total</field>
     <field>integrated</field>
     <set>
      <set comment="spin 1">
       <r>   -11.5659     0.0000     0.0000 </r>
       <r>    -8.8183     0.1062     1.0178 </r>
       <r>    -6.0707     0.0000     2.0000 </r>
       <r>    -3.3232     0.0000     2.0000 </r>
       <r>    -0.5756     0.0349     3.3860 </r>
       <r>     2.1720     0.0643     5.8627 </r>
       <r>     4.9195     0.0000     8.0300 </r>
       <r>     7.6671     0.0611     9.1358 </r>
       <r>    10.4147     0.0000    11.6860 </r>
       <r>    13.1622     0.0590    14.3401 </r>
       <r>    15.9098     0.0000    16.0000 </r>
      </set>
     </set>
    </array>
   </total>
   <partial>
    <array>
     <dimension dim="1">gridpoints</dimension>
     <dimension dim="2">spin</dimension>
     <dimension dim="3">ion</dimension>
     <field>energy</field>
     <field>  s  </field>
     <field>  p  </field>
     <field>  d  </field>
     <set>
      <set comment="ion 1">
       <set comment="spin 1">
        <r>   -11.5659     0.0000     0.0000     0.0000 </r>
        <r>    -8.8183     0.0107     0.0133     0.0034 </r>
        <r>    -6.0707     0.0000     0.0000     0.0000 </r>
        <r>    -3.3232     0.0000     0.0000     0.0000 </r>
        <r>    -0.5756     0.0125     0.0044     0.0012 </r>
        <r>     2.1720     0.0014     0.0174     0.0036 </r>
        <r>     4.9195     0.0000     0.0000     0.0000 </r>
        <r>     7.6671     0.0094     0.0120     0.0047 </r>
        <r>    10.4147     0.0000     0.0000     0.0000 </r>
        <r>    13.1622     0.0000     0.0354     0.0069 </r>
        <r>    15.9098     0.0000     0.0000     0.0000 </r>
       </set>
      </set>
      <set comment="ion 2">
       <set comment="spin 1">
        <r>   -11.5659     0.0000     0.0000     0.0000 </r>
        <r>    -8.8183     0.0619     0.0001     0.0000 </r>
        <r>    -6.0707     0.0000     0.0000     0.0000 </r>
        <r>    -3.3232     0.0000     0.0000     0.0000 </r>
        <r>    -0.5756     0.0018     0.0084     0.0000 </r>
        <r>     2.1720     0.0002     0.0290     0.0000 </r>
        <r>     4.9195     0.0000     0.0000     0.0000 </r>
        <r>     7.6671     0.0047     0.0103     0.0000 </r>
        <r>    10.4147     0.0000     0.0000     0.0000 </r>
        <r>    13.1622     0.0000     0.0033     0.0000 </r>
        <r>    15.9098     0.0000     0.0000     0.0000 </r>
       </set>
      </set>
     </set>
    </array>
   </partial>
  </dos>
  <projected>
   <eigenvalues>
    <array>
     <dimension dim="1">band</dimension>
     <dimension dim="2">kpoint</dimension>
     <dimension dim="3">spin</dimension>
     <field>eigene</field>
     <field>occ</field>
     <set>
      <set comment="spin 1">
       <set comment="kpoint 1">
        <r>  -10.3170    1.0000 </r>
        <r>    3.1885    1.0000 </r>
        <r>    3.7460    0.6667 </r>
        <r>    3.7460    0.6667 </r>
        <r>    3.7460    0.6667 </r>
        <r>   12.8701    0.0000 </r>
        <r>   12.8701    0.0000 </r>
        <r>   12.8701    0.0000 </r>
       </set>
       <set comment="kpoint 2">
        <r>  -10.2107    1.0000 </r>
        <r>    2.2759    1.0000 </r>
        <r>    3.6657    1.0000 </r>
        <r>    3.6657    1.0000 </r>
        <r>    4.5186    0.0000 </r>
        <r>   12.2421    0.0000 </r>
        <r>   12.9711    0.0000 </r>
        <r>   12.9711    0.0000 </r>
       </set>
       <set comment="kpoint 3">
        <r>   -9.9089    1.0000 </r>
        <r>    1.0090    1.0000 </r>
        <r>    3.4648    1.0000 </r>
        <r>    3.4648    1.0000 </r>
        <r>    5.3882    0.0000 </r>
        <r>   11.1966    0.0000 </r>
        <r>   13.1258    0.0000 </r>
        <r>   13.1258    0.0000 </r>
       </set>
       <set comment="kpoint 4">
        <r>   -9.4747    1.0000 </r>
        <r>   -0.2657    1.0000 </r>
        <r>    3.2320    1.0000 </r>
        <r>    3.2320    1.0000 </r>
        <r>    6.0829    0.0000 </r>
        <r>   10.4588    0.0000 </r>
        <r>   13.0928    0.0000 </r>
        <r>   13.0928    0.0000 </r>
       </set>
       <set comment="kpoint 5">
        <r>   -9.0508    1.0000 </r>
        <r>   -1.2695    1.0000 </r>
        <r>    3.0539    1.0000 </r>
        <r>    3.0539    1.0000 </r>
        <r>    6.4962    0.0000 </r>
        <r>   10.1395    0.0000 </r>
        <r>   12.9345    0.0000 </r>
        <r>   12.9345    0.0000 </r>
       </set>
       <set comment="kpoint 6">
        <r>   -8.8640    1.0000 </r>
        <r>   -1.6636    1.0000 </r>
        <r>    2.9881    1.0000 </r>
        <r>    2.9881    1.0000 </r>
        <r>    6.6211    0.0000 </r>
        <r>   10.0750    0.0000 </r>
        <r>   12.8558    0.0000 </r>
        <r>   12.8558    0.0000 </r>
       </set>
       <set comment="kpoint 7">
        <r>  -10.1755    1.0000 </r>
        <r>    2.1985    1.0000 </r>
        <r>    3.5212    1.0000 </r>
        <r>    3.5212    1.0000 </r>
        <r>    4.7884    0.0000 </r>
        <r>   12.1077    0.0000 </r>
        <r>   12.9795    0.0000 </r>
        <r>   12.9795    0.0000 </r>
       </set>
       <set comment="kpoint 8">
        <r>   -9.9391    1.0000 </r>
        <r>    1.3000    1.0000 </r>
        <r>    3.2721    1.0000 </r>
        <r>    3.3239    1.0000 </r>
        <r>    5.5108    0.0000 </r>
        <r>   11.3130    0.0000 </r>
        <r>   12.9656    0.0000 </r>
        <r>   13.1311    0.0000 </r>
       </set>
       <set comment="kpoint 9">
        <r>   -9.5468    1.0000 </r>
        <r>    0.1359    1.0000 </r>
        <r>    3.0241    1.0000 </r>
        <r>    3.0534    1.0000 </r>
        <r>    6.2569    0.0000 </r>
        <r>   10.5865    0.0000 </r>
        <r>   12.6409    0.0000 </r>
        <r>   13.2042    0.0000 </r>
       </set>
       <set comment="kpoint 10">
        <r>   -9.1096    1.0000 </r>
        <r>   -0.9220    1.0000 </r>
        <r>    2.7575    1.0000 </r>
        <r>    2.8675    1.0000 </r>
        <r>    6.8284    0.0000 </r>
        <r>   10.1297    0.0000 </r>
        <r>   12.4143    0.0000 </r>
        <r>   13.1216    0.0000 </r>
       </set>
       <set comment="kpoint 11">
        <r>   -8.8279    1.0000 </r>
        <r>   -1.5188    1.0000 </r>
        <r>    2.5363    1.0000 </r>
        <r>    2.8509    1.0000 </r>
        <r>    7.1045    0.0000 </r>
        <r>    9.9424    0.0000 </r>
        <r>   12.3527    0.0000 </r>
        <r>   13.0234    0.0000 </r>
       </set>
       <set comment="kpoint 12">
        <r>   -8.8905    1.0000 </r>
        <r>   -1.3908    1.0000 </r>
        <r>    2.4587    1.0000 </r>
        <r>    2.9771    1.0000 </r>
        <r>    7.0678    0.0000 </r>
        <r>    9.9914    0.0000 </r>
        <r>   12.2984    0.0000 </r>
        <r>   13.0490    0.0000 </r>
       </set>
       <set comment="kpoint 13">
        <r>   -9.2507    1.0000 </r>
        <r>   -0.6046    1.0000 </r>
        <r>    2.5596    1.0000 </r>
        <r>    3.2053    1.0000 </r>
        <r>    6.6935    0.0000 </r>
        <r>   10.3067    0.0000 </r>
        <r>   12.2807    0.0000 </r>
        <r>   13.2115    0.0000 </r>
       </set>
       <set comment="kpoint 14">
        <r>   -9.6908    1.0000 </r>
        <r>    0.5051    1.0000 </r>
        <r>    2.8427    1.0000 </r>
        <r>    3.4583    1.0000 </r>
        <r>    6.0113    0.0000 </r>
        <r>   10.9158    0.0000 </r>
        <r>   12.4406    0.0000 </r>
        <r>   13.3276    0.0000 </r>
       </set>
       <set comment="kpoint 15">
        <r>  -10.0391    1.0000 </r>
        <r>    1.5731    1.0000 </r>
        <r>    3.2712    1.0000 </r>
        <r>    3.6391    1.0000 </r>
        <r>    5.1834    0.0000 </r>
        <r>   11.6747    0.0000 </r>
        <r>   12.7706    0.0000 </r>
        <r>   13.1718    0.0000 </r>
       </set>
       <set comment="kpoint 16">
        <r>   -9.7761    1.0000 </r>
        <r>    1.0700    1.0000 </r>
        <r>    2.9686    1.0000 </r>
        <r>    2.9686    1.0000 </r>
        <r>    5.9754    0.0000 </r>
        <r>   10.7552    0.0000 </r>
        <r>   13.3291    0.0000 </r>
        <r>   13.3291    0.0000 </r>
       </set>
       <set comment="kpoint 17">
        <r>   -9.4509    1.0000 </r>
        <r>    0.3301    1.0000 </r>
        <r>    2.6162    1.0000 </r>
        <r>    2.6803    1.0000 </r>
        <r>    6.5719    0.0000 </r>
        <r>   10.2256    0.0000 </r>
        <r>   12.6584    0.0000 </r>
        <r>   13.5231    0.0000 </r>
       </set>
       <set comment="kpoint 18">
        <r>   -9.0481    1.0000 </r>
        <r>   -0.5333    1.0000 </r>
        <r>    2.1564    1.0000 </r>
        <r>    2.5097    1.0000 </r>
        <r>    7.2397    0.0000 </r>
        <r>    9.9203    0.0000 </r>
        <r>   12.0202    0.0000 </r>
        <r>   13.5533    0.0000 </r>
       </set>
       <set comment="kpoint 19">
        <r>   -8.7277    1.0000 </r>
        <r>   -1.1552    1.0000 </r>
        <r>    1.7267    1.0000 </r>
        <r>    2.5092    1.0000 </r>
        <r>    7.8090    0.0000 </r>
        <r>    9.6516    0.0000 </r>
        <r>   11.8702    0.0000 </r>
        <r>   13.4612    0.0000 </r>
       </set>
       <set comment="kpoint 20">
        <r>   -8.6774    1.0000 </r>
        <r>   -1.2454    1.0000 </r>
        <r>    1.4809    1.0000 </r>
        <r>    2.6770    1.0000 </r>
        <r>    8.0806    0.0000 </r>
        <r>    9.5559    0.0000 </r>
        <r>   11.7018    0.0000 </r>
        <r>   13.3920    0.0000 </r>
       </set>
       <set comment="kpoint 21">
        <r>   -8.9322    1.0000 </r>
        <r>   -0.7895    1.0000 </r>
        <r>    1.5421    1.0000 </r>
        <r>    2.9596    1.0000 </r>
        <r>    7.7384    0.0000 </r>
        <r>   10.0069    0.0000 </r>
        <r>   11.3750    0.0000 </r>
        <r>   13.4247    0.0000 </r>
       </set>
       <set comment="kpoint 22">
        <r>   -9.3299    1.0000 </r>
        <r>   -0.1078    1.0000 </r>
        <r>    2.0246    1.0000 </r>
        <r>    3.2593    1.0000 </r>
        <r>    6.9328    0.0000 </r>
        <r>   10.6806    0.0000 </r>
        <r>   11.4393    0.0000 </r>
        <r>   13.4715    0.0000 </r>
       </set>
       <set comment="kpoint 23">
        <r>   -9.2073    1.0000 </r>
        <r>    0.0518    1.0000 </r>
        <r>    2.3446    1.0000 </r>
        <r>    2.3446    1.0000 </r>
        <r>    6.7369    0.0000 </r>
        <r>    9.7161    0.0000 </r>
        <r>   12.9925    0.0000 </r>
        <r>   13.8760    0.0000 </r>
       </set>
       <set comment="kpoint 24">
        <r>   -8.8806    1.0000 </r>
        <r>   -0.4650    1.0000 </r>
        <r>    1.9090    1.0000 </r>
        <r>    2.1352    1.0000 </r>
        <r>    7.0710    0.0000 </r>
        <r>    9.5531    0.0000 </r>
        <r>   12.4095    0.0000 </r>
        <r>   14.0602    0.0000 </r>
       </set>
       <set comment="kpoint 25">
        <r>   -8.5913    1.0000 </r>
        <r>   -0.8642    1.0000 </r>
        <r>    1.2653    1.0000 </r>
        <r>    2.1162    1.0000 </r>
        <r>    7.6489    0.0000 </r>
        <r>    9.5691    0.0000 </r>
        <r>   12.0910    0.0000 </r>
        <r>   14.0114    0.0000 </r>
       </set>
       <set comment="kpoint 26">
        <r>   -8.4866    1.0000 </r>
        <r>   -0.9650    1.0000 </r>
        <r>    0.7677    1.0000 </r>
        <r>    2.2921    1.0000 </r>
        <r>    8.3145    0.0000 </r>
        <r>    9.4241    0.0000 </r>
        <r>   11.8224    0.0000 </r>
        <r>   13.8300    0.0000 </r>
       </set>
       <set comment="kpoint 27">
        <r>   -8.6291    1.0000 </r>
        <r>   -0.8757    1.0000 </r>
        <r>    0.8123    1.0000 </r>
        <r>    2.6090    1.0000 </r>
        <r>    8.6239    0.0000 </r>
        <r>    9.3364    0.0000 </r>
        <r>   11.3825    0.0000 </r>
        <r>   13.6271    0.0000 </r>
       </set>
       <set comment="kpoint 28">
        <r>   -8.6585    1.0000 </r>
        <r>   -0.7409    1.0000 </r>
        <r>    1.8785    1.0000 </r>
        <r>    1.8785    1.0000 </r>
        <r>    6.7748    0.0000 </r>
        <r>    9.3716    0.0000 </r>
        <r>   12.6149    0.0000 </r>
        <r>   14.4216    0.0000 </r>
       </set>
       <set comment="kpoint 29">
        <r>   -8.4687    1.0000 </r>
        <r>   -0.9502    1.0000 </r>
        <r>    1.4717    1.0000 </r>
        <r>    1.8181    1.0000 </r>
        <r>    6.9954    0.0000 </r>
        <r>    9.4328    0.0000 </r>
        <r>   12.5450    0.0000 </r>
        <r>   14.4761    0.0000 </r>
       </set>
       <set comment="kpoint 30">
        <r>   -8.4011    1.0000 </r>
        <r>   -0.9245    1.0000 </r>
        <r>    0.8592    1.0000 </r>
        <r>    1.9709    1.0000 </r>
        <r>    7.6329    0.0000 </r>
        <r>    9.5665    0.0000 </r>
        <r>   12.3512    0.0000 </r>
        <r>   14.2357    0.0000 </r>
       </set>
       <set comment="kpoint 31">
        <r>   -8.4185    1.0000 </r>
        <r>   -1.0600    1.0000 </r>
        <r>    1.7082    1.0000 </r>
        <r>    1.7082    1.0000 </r>
        <r>    6.6521    0.0000 </r>
        <r>    9.3357    0.0000 </r>
        <r>   12.6263    0.0000 </r>
        <r>   14.6609    0.0000 </r>
       </set>
       <set comment="kpoint 32">
        <r>   -9.6567    1.0000 </r>
        <r>    0.6232    1.0000 </r>
        <r>    2.6760    1.0000 </r>
        <r>    3.2179    1.0000 </r>
        <r>    6.2137    0.0000 </r>
        <r>   10.7937    0.0000 </r>
        <r>   12.3778    0.0000 </r>
        <r>   13.4263    0.0000 </r>
       </set>
       <set comment="kpoint 33">
        <r>   -9.2550    1.0000 </r>
        <r>   -0.2594    1.0000 </r>
        <r>    2.1748    1.0000 </r>
        <r>    2.9843    1.0000 </r>
        <r>    6.9978    0.0000 </r>
        <r>   10.3338    0.0000 </r>
        <r>   11.7936    0.0000 </r>
        <r>   13.4653    0.0000 </r>
       </set>
       <set comment="kpoint 34">
        <r>   -8.8697    1.0000 </r>
        <r>   -1.0477    1.0000 </r>
        <r>    1.9085    1.0000 </r>
        <r>    2.7375    1.0000 </r>
        <r>    7.6149    0.0000 </r>
        <r>    9.8753    0.0000 </r>
        <r>   11.7432    0.0000 </r>
        <r>   13.3306    0.0000 </r>
       </set>
       <set comment="kpoint 35">
        <r>   -8.7026    1.0000 </r>
        <r>   -1.3706    1.0000 </r>
        <r>    1.8329    1.0000 </r>
        <r>    2.6317    1.0000 </r>
        <r>    7.8572    0.0000 </r>
        <r>    9.6615    0.0000 </r>
        <r>   11.8386    0.0000 </r>
        <r>   13.2571    0.0000 </r>
       </set>
       <set comment="kpoint 36">
        <r>   -9.1201    1.0000 </r>
        <r>   -0.1956    1.0000 </r>
        <r>    2.0325    1.0000 </r>
        <r>    2.4924    1.0000 </r>
        <r>    7.1192    0.0000 </r>
        <r>    9.8888    0.0000 </r>
        <r>   12.0930    0.0000 </r>
        <r>   13.7606    0.0000 </r>
       </set>
       <set comment="kpoint 37">
        <r>   -8.7674    1.0000 </r>
        <r>   -0.7327    1.0000 </r>
        <r>    1.5168    1.0000 </r>
        <r>    2.2461    1.0000 </r>
        <r>    7.8151    0.0000 </r>
        <r>    9.7232    0.0000 </r>
        <r>   11.6725    0.0000 </r>
        <r>   13.6458    0.0000 </r>
       </set>
       <set comment="kpoint 38">
        <r>   -8.5536    1.0000 </r>
        <r>   -1.0421    1.0000 </r>
        <r>    1.1403    1.0000 </r>
        <r>    2.1909    1.0000 </r>
        <r>    8.4728    0.0000 </r>
        <r>    9.4359    0.0000 </r>
        <r>   11.6184    0.0000 </r>
        <r>   13.4578    0.0000 </r>
       </set>
       <set comment="kpoint 39">
        <r>   -8.6082    1.0000 </r>
        <r>   -0.9652    1.0000 </r>
        <r>    1.0336    1.0000 </r>
        <r>    2.3808    1.0000 </r>
        <r>    8.6576    0.0000 </r>
        <r>    9.3905    0.0000 </r>
        <r>   11.3711    0.0000 </r>
        <r>   13.4689    0.0000 </r>
       </set>
       <set comment="kpoint 40">
        <r>   -8.8949    1.0000 </r>
        <r>   -0.6332    1.0000 </r>
        <r>    1.3815    1.0000 </r>
        <r>    2.7041    1.0000 </r>
        <r>    7.9258    0.0000 </r>
        <r>    9.9928    0.0000 </r>
        <r>   11.1919    0.0000 </r>
        <r>   13.5499    0.0000 </r>
       </set>
       <set comment="kpoint 41">
        <r>   -8.6142    1.0000 </r>
        <r>   -0.7648    1.0000 </r>
        <r>    1.5807    1.0000 </r>
        <r>    1.8218    1.0000 </r>
        <r>    7.3532    0.0000 </r>
        <r>    9.5335    0.0000 </r>
        <r>   12.2646    0.0000 </r>
        <r>   13.8650    0.0000 </r>
       </set>
       <set comment="kpoint 42">
        <r>   -8.4339    1.0000 </r>
        <r>   -0.8813    1.0000 </r>
        <r>    1.0155    1.0000 </r>
        <r>    1.7518    1.0000 </r>
        <r>    7.9705    0.0000 </r>
        <r>    9.6260    0.0000 </r>
        <r>   12.1448    0.0000 </r>
        <r>   13.3550    0.0000 </r>
       </set>
       <set comment="kpoint 43">
        <r>   -8.4326    1.0000 </r>
        <r>   -0.8572    1.0000 </r>
        <r>    0.6556    1.0000 </r>
        <r>    1.9911    1.0000 </r>
        <r>    8.6682    0.0000 </r>
        <r>    9.4501    0.0000 </r>
        <r>   11.6887    0.0000 </r>
        <r>   13.3482    0.0000 </r>
       </set>
       <set comment="kpoint 44">
        <r>   -8.3978    1.0000 </r>
        <r>   -0.9767    1.0000 </r>
        <r>    1.4583    1.0000 </r>
        <r>    1.5100    1.0000 </r>
        <r>    7.2841    0.0000 </r>
        <r>    9.5149    0.0000 </r>
        <r>   12.5922    0.0000 </r>
        <r>   13.6901    0.0000 </r>
       </set>
       <set comment="kpoint 45">
        <r>   -8.5154    1.0000 </r>
        <r>   -0.8207    1.0000 </r>
        <r>    1.0127    1.0000 </r>
        <r>    1.8332    1.0000 </r>
        <r>    8.5764    0.0000 </r>
        <r>    9.6426    0.0000 </r>
        <r>   11.4128    0.0000 </r>
        <r>   13.2778    0.0000 </r>
       </set>
       <set comment="kpoint 46">
        <r>   -8.4120    1.0000 </r>
        <r>   -0.8415    1.0000 </r>
        <r>    0.8422    1.0000 </r>
        <r>    1.6216    1.0000 </r>
        <r>    8.9950    0.0000 </r>
        <r>    9.5368    0.0000 </r>
        <r>   11.4650    0.0000 </r>
        <r>   12.9573    0.0000 </r>
       </set>
       <set comment="kpoint 47">
        <r>   -8.3637    1.0000 </r>
        <r>   -0.8154    1.0000 </r>
        <r>    1.1135    1.0000 </r>
        <r>    1.1748    1.0000 </r>
        <r>    8.5837    0.0000 </r>
        <r>    9.7817    0.0000 </r>
        <r>   12.0139    0.0000 </r>
        <r>   12.5401    0.0000 </r>
       </set>
      </set>
     </set>
    </array>
   </eigenvalues>
   <array>
    <dimension dim="1">ion</dimension>
    <dimension dim="2">band</dimension>
    <dimension dim="3">kpoint</dimension>
    <dimension dim="4">spin</dimension>
    <field>  s  </field>
    <field>  p  </field>
    <field>  d  </field>
    <set>
     <set comment="spin1">
      <set comment="kpoint 1">
       <set comment="band 1">
        <r>  0.3387  0.0000  0.0000 </r>
        <r>  0.4844  0.0000  0.0000 </r>
       </set>
       <set comment="band 2">
        <r>  0.3777  0.0000  0.0000 </r>
        <r>  0.2670  0.0000  0.0000 </r>
       </set>
       <set comment="band 3">
        <r>  0.0000  0.0627  0.1632 </r>
        <r>  0.0000  0.5946  0.0000 </r>
       </set>
       <set comment="band 4">
        <r>  0.0000  0.0627  0.1632 </r>
        <r>  0.0000  0.5946  0.0000 </r>
       </set>
       <set comment="band 5">
        <r>  0.0000  0.0627  0.1632 </r>
        <r>  0.0000  0.5946  0.0000 </r>
       </set>
       <set comment="band 6">
        <r>  0.0000  0.7587  0.0108 </r>
        <r>  0.0000  0.0023  0.0000 </r>
       </set>
       <set comment="band 7">
        <r>  0.0000  0.7587  0.0108 </r>
        <r>  0.0000  0.0023  0.0000 </r>
       </set>
       <set comment="band 8">
        <r>  0.0000  0.7587  0.0108 </r>
        <r>  0.0000  0.0023  0.0000 </r>
       </set>
      </set>
      <set comment="kpoint 2">
       <set comment="band 1">
        <r>  0.3229  0.0102  0.0016 </r>
        <r>  0.4895  0.0004  0.0000 </r>
       </set>
       <set comment="band 2">
        <r>  0.2498  0.0329  0.0812 </r>
        <r>  0.1530  0.2278  0.0000 </r>
       </set>
       <set comment="band 3">
        <r>  0.0000  0.0775  0.1553 </r>
        <r>  0.0000  0.5871  0.0000 </r>
       </set>
       <set comment="band 4">
        <r>  0.0000  0.0775  0.1553 </r>
        <r>  0.0000  0.5871  0.0000 </r>
       </set>
       <set comment="band 5">
        <r>  0.1383  0.0693  0.0614 </r>
        <r>  0.1066  0.3454  0.0000 </r>
       </set>
       <set comment="band 6">
        <r>  0.0657  0.5988  0.0171 </r>
        <r>  0.0003  0.0367  0.0000 </r>
       </set>
       <set comment="band 7">
        <r>  0.0000  0.7454  0.0191 </r>
        <r>  0.0000  0.0118  0.0000 </r>
       </set>
       <set comment="band 8">
        <r>  0.0000  0.7454  0.0191 </r>
        <r>  0.0000  0.0118  0.0000 </r>
       </set>
      </set>
      <set comment="kpoint 3">
       <set comment="band 1">
        <r>  0.2771  0.0379  0.0067 </r>
        <r>  0.5057  0.0014  0.0000 </r>
       </set>
       <set comment="band 2">
        <r>  0.2535  0.0849  0.0799 </r>
        <r>  0.1118  0.2508  0.0000 </r>
       </set>
       <set comment="band 3">
        <r>  0.0000  0.1133  0.1357 </r>
        <r>  0.0000  0.5699  0.0000 </r>
       </set>
       <set comment="band 4">
        <r>  0.0000  0.1133  0.1357 </r>
        <r>  0.0000  0.5699  0.0000 </r>
       </set>
       <set comment="band 5">
        <r>  0.1802  0.1095  0.0150 </r>
        <r>  0.1254  0.2583  0.0000 </r>
       </set>
       <set comment="band 6">
        <r>  0.1193  0.3742  0.0374 </r>
        <r>  0.0020  0.1220  0.0000 </r>
       </set>
       <set comment="band 7">
        <r>  0.0000  0.6911  0.0663 </r>
        <r>  0.0000  0.0295  0.0000 </r>
       </set>
       <set comment="band 8">
        <r>  0.0000  0.6911  0.0663 </r>
        <r>  0.0000  0.0295  0.0000 </r>
       </set>
      </set>
      <set comment="kpoint 4">
       <set comment="band 1">
        <r>  0.2078  0.0748  0.0160 </r>
        <r>  0.5342  0.0019  0.0000 </r>
       </set>
       <set comment="band 2">
        <r>  0.2926  0.1431  0.0498 </r>
        <r>  0.0699  0.2415  0.0000 </r>
       </set>
       <set comment="band 3">
        <r>  0.0000  0.1525  0.1126 </r>
        <r>  0.0000  0.5520  0.0000 </r>
       </set>
       <set comment="band 4">
        <r>  0.0000  0.1525  0.1126 </r>
        <r>  0.0000  0.5520  0.0000 </r>
       </set>
       <set comment="band 5">
        <r>  0.2441  0.1383  0.0000 </r>
        <r>  0.1312  0.1659  0.0000 </r>
       </set>
       <set comment="band 6">
        <r>  0.0999  0.2090  0.0658 </r>
        <r>  0.0039  0.2441  0.0000 </r>
       </set>
       <set comment="band 7">
        <r>  0.0000  0.5942  0.1637 </r>
        <r>  0.0000  0.0365  0.0000 </r>
       </set>
       <set comment="band 8">
        <r>  0.0000  0.5942  0.1637 </r>
        <r>  0.0000  0.0365  0.0000 </r>
       </set>
      </set>
      <set comment="kpoint 5">
       <set comment="band 1">
        <r>  0.1338  0.1079  0.0276 </r>
        <r>  0.5702  0.0011  0.0000 </r>
       </set>
       <set comment="band 2">
        <r>  0.3480  0.1807  0.0170 </r>
        <r>  0.0261  0.2299  0.0000 </r>
       </set>
       <set comment="band 3">
        <r>  0.0000  0.1812  0.0947 </r>
        <r>  0.0000  0.5397  0.0000 </r>
       </set>
       <set comment="band 4">
        <r>  0.0000  0.1812  0.0947 </r>
        <r>  0.0000  0.5397  0.0000 </r>
       </set>
       <set comment="band 5">
        <r>  0.3209  0.1426  0.0072 </r>
        <r>  0.1324  0.0747  0.0000 </r>
       </set>
       <set comment="band 6">
        <r>  0.0418  0.1188  0.0936 </r>
        <r>  0.0052  0.3623  0.0000 </r>
       </set>
       <set comment="band 7">
        <r>  0.0000  0.5184  0.2419 </r>
        <r>  0.0000  0.0348  0.0000 </r>
       </set>
       <set comment="band 8">
        <r>  0.0000  0.5184  0.2419 </r>
        <r>  0.0000  0.0348  0.0000 </r>
       </set>
      </set>
      <set comment="kpoint 6">
       <set comment="band 1">
        <r>  0.0981  0.1218  0.0338 </r>
        <r>  0.5895  0.0002  0.0000 </r>
       </set>
       <set comment="band 2">
        <r>  0.3774  0.1923  0.0026 </r>
        <r>  0.0042  0.2257  0.0000 </r>
       </set>
       <set comment="band 3">
        <r>  0.0000  0.1916  0.0879 </r>
        <r>  0.0000  0.5353  0.0000 </r>
       </set>
       <set comment="band 4">
        <r>  0.0000  0.1916  0.0879 </r>
        <r>  0.0000  0.5353  0.0000 </r>
       </set>
       <set comment="band 5">
        <r>  0.3554  0.1385  0.0135 </r>
        <r>  0.1321  0.0367  0.0000 </r>
       </set>
       <set comment="band 6">
        <r>  0.0127  0.0928  0.1071 </r>
        <r>  0.0058  0.4101  0.0000 </r>
       </set>
       <set comment="band 7">
        <r>  0.0000  0.4933  0.2675 </r>
        <r>  0.0000  0.0335  0.0000 </r>
       </set>
       <set comment="band 8">
        <r>  0.0000  0.4933  0.2675 </r>
        <r>  0.0000  0.0335  0.0000 </r>
       </set>
      </set>
      <set comment="kpoint 7">
       <set comment="band 1">
        <r>  0.3175  0.0137  0.0021 </r>
        <r>  0.4912  0.0006  0.0000 </r>
       </set>
       <set comment="band 2">
        <r>  0.2666  0.0160  0.0851 </r>
        <r>  0.1586  0.2205  0.0000 </r>
       </set>
       <set comment="band 3">
        <r>  0.0000  0.1018  0.1458 </r>
        <r>  0.0000  0.5714  0.0000 </r>
       </set>
       <set comment="band 4">
        <r>  0.0000  0.1018  0.1458 </r>
        <r>  0.0000  0.5714  0.0000 </r>
       </set>
       <set comment="band 5">
        <r>  0.1227  0.0602  0.0644 </r>
        <r>  0.0983  0.3740  0.0000 </r>
       </set>
       <set comment="band 6">
        <r>  0.0914  0.6308  0.0246 </r>
        <r>  0.0000  0.0046  0.0000 </r>
       </set>
       <set comment="band 7">
        <r>  0.0000  0.6978  0.0168 </r>
        <r>  0.0000  0.0376  0.0000 </r>
       </set>
       <set comment="band 8">
        <r>  0.0000  0.6978  0.0168 </r>
        <r>  0.0000  0.0376  0.0000 </r>
       </set>
      </set>
      <set comment="kpoint 8">
       <set comment="band 1">
        <r>  0.2815  0.0357  0.0060 </r>
        <r>  0.5037  0.0013  0.0000 </r>
       </set>
       <set comment="band 2">
        <r>  0.2680  0.0488  0.0885 </r>
        <r>  0.1263  0.2460  0.0000 </r>
       </set>
       <set comment="band 3">
        <r>  0.0000  0.1427  0.1255 </r>
        <r>  0.0000  0.5490  0.0000 </r>
       </set>
       <set comment="band 4">
        <r>  0.0104  0.1284  0.1279 </r>
        <r>  0.0040  0.5441  0.0000 </r>
       </set>
       <set comment="band 5">
        <r>  0.1390  0.0908  0.0294 </r>
        <r>  0.1085  0.3255  0.0000 </r>
       </set>
       <set comment="band 6">
        <r>  0.1502  0.4591  0.0468 </r>
        <r>  0.0004  0.0609  0.0000 </r>
       </set>
       <set comment="band 7">
        <r>  0.0026  0.6245  0.0595 </r>
        <r>  0.0023  0.0416  0.0000 </r>
       </set>
       <set comment="band 8">
        <r>  0.0000  0.6366  0.0412 </r>
        <r>  0.0000  0.0685  0.0000 </r>
       </set>
      </set>
      <set comment="kpoint 9">
       <set comment="band 1">
        <r>  0.2195  0.0699  0.0140 </r>
        <r>  0.5282  0.0020  0.0000 </r>
       </set>
       <set comment="band 2">
        <r>  0.2920  0.1107  0.0631 </r>
        <r>  0.0852  0.2461  0.0000 </r>
       </set>
       <set comment="band 3">
        <r>  0.0000  0.1816  0.1030 </r>
        <r>  0.0000  0.5304  0.0000 </r>
       </set>
       <set comment="band 4">
        <r>  0.0259  0.1563  0.1076 </r>
        <r>  0.0073  0.5132  0.0000 </r>
       </set>
       <set comment="band 5">
        <r>  0.1792  0.1233  0.0091 </r>
        <r>  0.1131  0.2577  0.0000 </r>
       </set>
       <set comment="band 6">
        <r>  0.1454  0.2690  0.0815 </r>
        <r>  0.0023  0.1757  0.0000 </r>
       </set>
       <set comment="band 7">
        <r>  0.0196  0.4997  0.1508 </r>
        <r>  0.0053  0.0300  0.0000 </r>
       </set>
       <set comment="band 8">
        <r>  0.0000  0.5628  0.1125 </r>
        <r>  0.0000  0.0822  0.0000 </r>
       </set>
      </set>
      <set comment="kpoint 10">
       <set comment="band 1">
        <r>  0.1450  0.1046  0.0254 </r>
        <r>  0.5631  0.0016  0.0000 </r>
       </set>
       <set comment="band 2">
        <r>  0.3398  0.1609  0.0278 </r>
        <r>  0.0398  0.2359  0.0000 </r>
       </set>
       <set comment="band 3">
        <r>  0.0383  0.1841  0.0894 </r>
        <r>  0.0093  0.4859  0.0000 </r>
       </set>
       <set comment="band 4">
        <r>  0.0000  0.2060  0.0864 </r>
        <r>  0.0000  0.5211  0.0000 </r>
       </set>
       <set comment="band 5">
        <r>  0.2506  0.1364  0.0107 </r>
        <r>  0.1132  0.1738  0.0000 </r>
       </set>
       <set comment="band 6">
        <r>  0.0755  0.1544  0.1197 </r>
        <r>  0.0042  0.2920  0.0000 </r>
       </set>
       <set comment="band 7">
        <r>  0.0411  0.4197  0.1931 </r>
        <r>  0.0050  0.0564  0.0000 </r>
       </set>
       <set comment="band 8">
        <r>  0.0000  0.5003  0.1973 </r>
        <r>  0.0000  0.0746  0.0000 </r>
       </set>
      </set>
      <set comment="kpoint 11">
       <set comment="band 1">
        <r>  0.0923  0.1253  0.0346 </r>
        <r>  0.5912  0.0004  0.0000 </r>
       </set>
       <set comment="band 2">
        <r>  0.3800  0.1837  0.0048 </r>
        <r>  0.0070  0.2297  0.0000 </r>
       </set>
       <set comment="band 3">
        <r>  0.0442  0.2049  0.0774 </r>
        <r>  0.0100  0.4680  0.0000 </r>
       </set>
       <set comment="band 4">
        <r>  0.0000  0.2100  0.0811 </r>
        <r>  0.0000  0.5224  0.0000 </r>
       </set>
       <set comment="band 5">
        <r>  0.3110  0.1348  0.0163 </r>
        <r>  0.1125  0.1130  0.0000 </r>
       </set>
       <set comment="band 6">
        <r>  0.0123  0.1153  0.1476 </r>
        <r>  0.0050  0.3571  0.0000 </r>
       </set>
       <set comment="band 7">
        <r>  0.0494  0.3764  0.1994 </r>
        <r>  0.0038  0.0978  0.0000 </r>
       </set>
       <set comment="band 8">
        <r>  0.0000  0.4762  0.2477 </r>
        <r>  0.0000  0.0593  0.0000 </r>
       </set>
      </set>
      <set comment="kpoint 12">
       <set comment="band 1">
        <r>  0.1046  0.1205  0.0325 </r>
        <r>  0.5845  0.0008  0.0000 </r>
       </set>
       <set comment="band 2">
        <r>  0.3697  0.1802  0.0096 </r>
        <r>  0.0146  0.2308  0.0000 </r>
       </set>
       <set comment="band 3">
        <r>  0.0428  0.2150  0.0743 </r>
        <r>  0.0093  0.4621  0.0000 </r>
       </set>
       <set comment="band 4">
        <r>  0.0000  0.1926  0.0888 </r>
        <r>  0.0000  0.5335  0.0000 </r>
       </set>
       <set comment="band 5">
        <r>  0.3022  0.1342  0.0131 </r>
        <r>  0.1135  0.1266  0.0000 </r>
       </set>
       <set comment="band 6">
        <r>  0.0189  0.1227  0.1416 </r>
        <r>  0.0052  0.3445  0.0000 </r>
       </set>
       <set comment="band 7">
        <r>  0.0505  0.3712  0.1863 </r>
        <r>  0.0043  0.1002  0.0000 </r>
       </set>
       <set comment="band 8">
        <r>  0.0000  0.4997  0.2515 </r>
        <r>  0.0000  0.0442  0.0000 </r>
       </set>
      </set>
      <set comment="kpoint 13">
       <set comment="band 1">
        <r>  0.1702  0.0932  0.0215 </r>
        <r>  0.5509  0.0019  0.0000 </r>
       </set>
       <set comment="band 2">
        <r>  0.3208  0.1492  0.0386 </r>
        <r>  0.0551  0.2389  0.0000 </r>
       </set>
       <set comment="band 3">
        <r>  0.0338  0.2117  0.0813 </r>
        <r>  0.0068  0.4708  0.0000 </r>
       </set>
       <set comment="band 4">
        <r>  0.0000  0.1579  0.1074 </r>
        <r>  0.0000  0.5518  0.0000 </r>
       </set>
       <set comment="band 5">
        <r>  0.2345  0.1312  0.0057 </r>
        <r>  0.1154  0.2011  0.0000 </r>
       </set>
       <set comment="band 6">
        <r>  0.0874  0.1800  0.1073 </r>
        <r>  0.0044  0.2621  0.0000 </r>
       </set>
       <set comment="band 7">
        <r>  0.0394  0.4034  0.1564 </r>
        <r>  0.0057  0.0746  0.0000 </r>
       </set>
       <set comment="band 8">
        <r>  0.0000  0.5825  0.2005 </r>
        <r>  0.0000  0.0311  0.0000 </r>
       </set>
      </set>
      <set comment="kpoint 14">
       <set comment="band 1">
        <r>  0.2429  0.0572  0.0110 </r>
        <r>  0.5187  0.0018  0.0000 </r>
       </set>
       <set comment="band 2">
        <r>  0.2779  0.0947  0.0724 </r>
        <r>  0.0995  0.2474  0.0000 </r>
       </set>
       <set comment="band 3">
        <r>  0.0185  0.1899  0.0992 </r>
        <r>  0.0027  0.4983  0.0000 </r>
       </set>
       <set comment="band 4">
        <r>  0.0000  0.1161  0.1305 </r>
        <r>  0.0000  0.5723  0.0000 </r>
       </set>
       <set comment="band 5">
        <r>  0.1741  0.1133  0.0103 </r>
        <r>  0.1162  0.2734  0.0000 </r>
       </set>
       <set comment="band 6">
        <r>  0.1434  0.3089  0.0692 </r>
        <r>  0.0018  0.1540  0.0000 </r>
       </set>
       <set comment="band 7">
        <r>  0.0128  0.4710  0.1021 </r>
        <r>  0.0057  0.0641  0.0000 </r>
       </set>
       <set comment="band 8">
        <r>  0.0000  0.7132  0.0979 </r>
        <r>  0.0000  0.0179  0.0000 </r>
       </set>
      </set>
      <set comment="kpoint 15">
       <set comment="band 1">
        <r>  0.2970  0.0263  0.0044 </r>
        <r>  0.4983  0.0010  0.0000 </r>
       </set>
       <set comment="band 2">
        <r>  0.2561  0.0478  0.0879 </r>
        <r>  0.1333  0.2439  0.0000 </r>
       </set>
       <set comment="band 3">
        <r>  0.0046  0.1391  0.1281 </r>
        <r>  0.0001  0.5437  0.0000 </r>
       </set>
       <set comment="band 4">
        <r>  0.0000  0.0837  0.1492 </r>
        <r>  0.0000  0.5869  0.0000 </r>
       </set>
       <set comment="band 5">
        <r>  0.1477  0.0856  0.0349 </r>
        <r>  0.1134  0.3189  0.0000 </r>
       </set>
       <set comment="band 6">
        <r>  0.1229  0.4839  0.0357 </r>
        <r>  0.0001  0.0676  0.0000 </r>
       </set>
       <set comment="band 7">
        <r>  0.0002  0.5964  0.0417 </r>
        <r>  0.0024  0.0552  0.0000 </r>
       </set>
       <set comment="band 8">
        <r>  0.0000  0.7702  0.0339 </r>
        <r>  0.0000  0.0062  0.0000 </r>
       </set>
[...]
        <r>  0.0034  0.2525  0.0000 </r>
       </set>
       <set comment="band 8">
        <r>  0.0000  0.3824  0.1298 </r>
        <r>  0.0000  0.2605  0.0000 </r>
       </set>
      </set>
      <set comment="kpoint 30">
       <set comment="band 1">
        <r>  0.0040  0.1728  0.0455 </r>
        <r>  0.6271  0.0000  0.0000 </r>
       </set>
       <set comment="band 2">
        <r>  0.5639  0.0072  0.0187 </r>
        <r>  0.0003  0.2586  0.0000 </r>
       </set>
       <set comment="band 3">
        <r>  0.0005  0.3896  0.0250 </r>
        <r>  0.0001  0.3522  0.0000 </r>
       </set>
       <set comment="band 4">
        <r>  0.0000  0.3145  0.0336 </r>
        <r>  0.0000  0.4548  0.0000 </r>
       </set>
       <set comment="band 5">
        <r>  0.0243  0.3079  0.2011 </r>
        <r>  0.0498  0.0600  0.0000 </r>
       </set>
       <set comment="band 6">
        <r>  0.3690  0.0007  0.0637 </r>
        <r>  0.0016  0.3453  0.0000 </r>
       </set>
       <set comment="band 7">
        <r>  0.0100  0.0664  0.1817 </r>
        <r>  0.0097  0.3085  0.0000 </r>
       </set>
       <set comment="band 8">
        <r>  0.0000  0.3818  0.1551 </r>
        <r>  0.0000  0.2244  0.0000 </r>
       </set>
      </set>
      <set comment="kpoint 31">
       <set comment="band 1">
        <r>  0.0000  0.1828  0.0424 </r>
        <r>  0.6240  0.0000  0.0000 </r>
       </set>
       <set comment="band 2">
        <r>  0.5521  0.0000  0.0329 </r>
        <r>  0.0000  0.2547  0.0000 </r>
       </set>
       <set comment="band 3">
        <r>  0.0000  0.3411  0.0203 </r>
        <r>  0.0000  0.4373  0.0000 </r>
       </set>
       <set comment="band 4">
        <r>  0.0000  0.3411  0.0203 </r>
        <r>  0.0000  0.4373  0.0000 </r>
       </set>
       <set comment="band 5">
        <r>  0.0000  0.3862  0.1780 </r>
        <r>  0.0662  0.0000  0.0000 </r>
       </set>
       <set comment="band 6">
        <r>  0.4270  0.0000  0.1279 </r>
        <r>  0.0000  0.2271  0.0000 </r>
       </set>
       <set comment="band 7">
        <r>  0.0051  0.0000  0.2282 </r>
        <r>  0.0000  0.2666  0.0000 </r>
       </set>
       <set comment="band 8">
        <r>  0.0000  0.3766  0.1243 </r>
        <r>  0.0000  0.2850  0.0000 </r>
       </set>
      </set>
      <set comment="kpoint 32">
       <set comment="band 1">
        <r>  0.2370  0.0613  0.0114 </r>
        <r>  0.5204  0.0020  0.0000 </r>
       </set>
       <set comment="band 2">
        <r>  0.2976  0.0636  0.0801 </r>
        <r>  0.1070  0.2466  0.0000 </r>
       </set>
       <set comment="band 3">
        <r>  0.0145  0.2146  0.0901 </r>
        <r>  0.0002  0.4880  0.0000 </r>
       </set>
       <set comment="band 4">
        <r>  0.0062  0.1478  0.1168 </r>
        <r>  0.0026  0.5426  0.0000 </r>
       </set>
       <set comment="band 5">
        <r>  0.1383  0.1129  0.0146 </r>
        <r>  0.1044  0.3114  0.0000 </r>
       </set>
       <set comment="band 6">
        <r>  0.1961  0.3638  0.0846 </r>
        <r>  0.0000  0.0962  0.0000 </r>
       </set>
       <set comment="band 7">
        <r>  0.0001  0.3977  0.1188 </r>
        <r>  0.0083  0.0796  0.0000 </r>
       </set>
       <set comment="band 8">
        <r>  0.0004  0.6467  0.0715 </r>
        <r>  0.0000  0.0718  0.0000 </r>
       </set>
      </set>
      <set comment="kpoint 33">
       <set comment="band 1">
        <r>  0.1708  0.0947  0.0209 </r>
        <r>  0.5491  0.0022  0.0000 </r>
       </set>
       <set comment="band 2">
        <r>  0.3340  0.1083  0.0518 </r>
        <r>  0.0696  0.2441  0.0000 </r>
       </set>
       <set comment="band 3">
        <r>  0.0400  0.2479  0.0672 </r>
        <r>  0.0042  0.4393  0.0000 </r>
       </set>
       <set comment="band 4">
        <r>  0.0067  0.1825  0.0980 </r>
        <r>  0.0019  0.5245  0.0000 </r>
       </set>
       <set comment="band 5">
        <r>  0.1670  0.1282  0.0112 </r>
        <r>  0.0982  0.2781  0.0000 </r>
       </set>
       <set comment="band 6">
        <r>  0.1679  0.2335  0.1394 </r>
        <r>  0.0016  0.1834  0.0000 </r>
       </set>
       <set comment="band 7">
        <r>  0.0264  0.3232  0.1371 </r>
        <r>  0.0131  0.0834  0.0000 </r>
       </set>
       <set comment="band 8">
        <r>  0.0004  0.5431  0.1526 </r>
        <r>  0.0002  0.0925  0.0000 </r>
       </set>
      </set>
      <set comment="kpoint 34">
       <set comment="band 1">
        <r>  0.1017  0.1241  0.0323 </r>
        <r>  0.5835  0.0013  0.0000 </r>
       </set>
       <set comment="band 2">
        <r>  0.3772  0.1517  0.0185 </r>
        <r>  0.0258  0.2386  0.0000 </r>
       </set>
       <set comment="band 3">
        <r>  0.0673  0.2444  0.0606 </r>
        <r>  0.0107  0.4120  0.0000 </r>
       </set>
       <set comment="band 4">
        <r>  0.0037  0.2198  0.0797 </r>
        <r>  0.0008  0.5069  0.0000 </r>
       </set>
       <set comment="band 5">
        <r>  0.2370  0.1296  0.0162 </r>
        <r>  0.0918  0.2200  0.0000 </r>
       </set>
       <set comment="band 6">
        <r>  0.0621  0.1594  0.1883 </r>
        <r>  0.0043  0.2557  0.0000 </r>
       </set>
       <set comment="band 7">
        <r>  0.0722  0.2946  0.1304 </r>
        <r>  0.0125  0.1366  0.0000 </r>
       </set>
       <set comment="band 8">
        <r>  0.0003  0.4545  0.2133 </r>
        <r>  0.0005  0.1036  0.0000 </r>
       </set>
      </set>
      <set comment="kpoint 35">
       <set comment="band 1">
        <r>  0.0694  0.1360  0.0382 </r>
        <r>  0.6013  0.0005  0.0000 </r>
       </set>
       <set comment="band 2">
        <r>  0.4003  0.1673  0.0038 </r>
        <r>  0.0045  0.2361  0.0000 </r>
       </set>
       <set comment="band 3">
        <r>  0.0791  0.2379  0.0603 </r>
        <r>  0.0135  0.4035  0.0000 </r>
       </set>
       <set comment="band 4">
        <r>  0.0007  0.2369  0.0717 </r>
        <r>  0.0001  0.5002  0.0000 </r>
       </set>
       <set comment="band 5">
        <r>  0.2904  0.1274  0.0150 </r>
        <r>  0.0900  0.1798  0.0000 </r>
       </set>
       <set comment="band 6">
        <r>  0.0000  0.1421  0.2117 </r>
        <r>  0.0040  0.2896  0.0000 </r>
       </set>
       <set comment="band 7">
        <r>  0.0823  0.2805  0.1283 </r>
        <r>  0.0111  0.1774  0.0000 </r>
       </set>
       <set comment="band 8">
        <r>  0.0002  0.4256  0.2305 </r>
        <r>  0.0008  0.1067  0.0000 </r>
       </set>
      </set>
      <set comment="kpoint 36">
       <set comment="band 1">
        <r>  0.1454  0.1102  0.0234 </r>
        <r>  0.5582  0.0023  0.0000 </r>
       </set>
       <set comment="band 2">
        <r>  0.3855  0.0533  0.0611 </r>
        <r>  0.0705  0.2480  0.0000 </r>
       </set>
       <set comment="band 3">
        <r>  0.0214  0.2833  0.0536 </r>
        <r>  0.0004  0.4399  0.0000 </r>
       </set>
       <set comment="band 4">
        <r>  0.0075  0.2436  0.0727 </r>
        <r>  0.0017  0.4816  0.0000 </r>
       </set>
       <set comment="band 5">
        <r>  0.0859  0.1928  0.0357 </r>
        <r>  0.0832  0.2566  0.0000 </r>
       </set>
       <set comment="band 6">
        <r>  0.2919  0.2181  0.1263 </r>
        <r>  0.0003  0.1483  0.0000 </r>
       </set>
       <set comment="band 7">
        <r>  0.0012  0.2103  0.2198 </r>
        <r>  0.0152  0.1037  0.0000 </r>
       </set>
       <set comment="band 8">
        <r>  0.0009  0.4487  0.1228 </r>
        <r>  0.0012  0.1795  0.0000 </r>
       </set>
      </set>
      <set comment="kpoint 37">
       <set comment="band 1">
        <r>  0.0811  0.1375  0.0341 </r>
        <r>  0.5901  0.0015  0.0000 </r>
       </set>
       <set comment="band 2">
        <r>  0.4314  0.0812  0.0314 </r>
        <r>  0.0341  0.2484  0.0000 </r>
       </set>
       <set comment="band 3">
        <r>  0.0497  0.2989  0.0431 </r>
        <r>  0.0038  0.3928  0.0000 </r>
       </set>
       <set comment="band 4">
        <r>  0.0045  0.2753  0.0592 </r>
        <r>  0.0007  0.4626  0.0000 </r>
       </set>
       <set comment="band 5">
        <r>  0.0982  0.1934  0.0740 </r>
        <r>  0.0675  0.2279  0.0000 </r>
       </set>
       <set comment="band 6">
        <r>  0.2632  0.1265  0.1450 </r>
        <r>  0.0022  0.2396  0.0000 </r>
       </set>
       <set comment="band 7">
        <r>  0.0213  0.2236  0.1631 </r>
        <r>  0.0237  0.1339  0.0000 </r>
       </set>
       <set comment="band 8">
        <r>  0.0013  0.3610  0.1758 </r>
        <r>  0.0045  0.1932  0.0000 </r>
       </set>
      </set>
      <set comment="kpoint 38">
       <set comment="band 1">
        <r>  0.0403  0.1512  0.0422 </r>
        <r>  0.6130  0.0005  0.0000 </r>
       </set>
       <set comment="band 2">
        <r>  0.4580  0.1082  0.0079 </r>
        <r>  0.0065  0.2485  0.0000 </r>
       </set>
       <set comment="band 3">
        <r>  0.0710  0.2981  0.0435 </r>
        <r>  0.0075  0.3608  0.0000 </r>
       </set>
       <set comment="band 4">
        <r>  0.0020  0.2849  0.0543 </r>
        <r>  0.0001  0.4600  0.0000 </r>
       </set>
       <set comment="band 5">
        <r>  0.1687  0.1715  0.0888 </r>
        <r>  0.0553  0.1992  0.0000 </r>
       </set>
       <set comment="band 6">
        <r>  0.1477  0.1004  0.1714 </r>
        <r>  0.0075  0.2874  0.0000 </r>
       </set>
       <set comment="band 7">
        <r>  0.0623  0.2313  0.1102 </r>
        <r>  0.0262  0.2074  0.0000 </r>
       </set>
       <set comment="band 8">
        <r>  0.0014  0.3273  0.1990 </r>
        <r>  0.0071  0.1782  0.0000 </r>
       </set>
      </set>
      <set comment="kpoint 39">
       <set comment="band 1">
        <r>  0.0524  0.1453  0.0406 </r>
        <r>  0.6074  0.0008  0.0000 </r>
       </set>
       <set comment="band 2">
        <r>  0.4460  0.1114  0.0101 </r>
        <r>  0.0136  0.2475  0.0000 </r>
       </set>
       <set comment="band 3">
        <r>  0.0680  0.3078  0.0413 </r>
        <r>  0.0049  0.3558  0.0000 </r>
       </set>
       <set comment="band 4">
        <r>  0.0041  0.2619  0.0635 </r>
        <r>  0.0007  0.4745  0.0000 </r>
       </set>
       <set comment="band 5">
        <r>  0.2667  0.1016  0.0112 </r>
        <r>  0.0626  0.2834  0.0000 </r>
       </set>
       <set comment="band 6">
        <r>  0.0252  0.1808  0.2558 </r>
        <r>  0.0060  0.1948  0.0000 </r>
       </set>
       <set comment="band 7">
        <r>  0.0808  0.2271  0.0831 </r>
        <r>  0.0257  0.2153  0.0000 </r>
       </set>
       <set comment="band 8">
        <r>  0.0016  0.3581  0.2050 </r>
        <r>  0.0045  0.1621  0.0000 </r>
       </set>
      </set>
      <set comment="kpoint 40">
       <set comment="band 1">
        <r>  0.1073  0.1233  0.0310 </r>
        <r>  0.5791  0.0018  0.0000 </r>
       </set>
       <set comment="band 2">
        <r>  0.3952  0.1033  0.0328 </r>
        <r>  0.0452  0.2447  0.0000 </r>
       </set>
       <set comment="band 3">
        <r>  0.0558  0.3020  0.0436 </r>
        <r>  0.0008  0.3821  0.0000 </r>
       </set>
       <set comment="band 4">
        <r>  0.0056  0.2212  0.0810 </r>
        <r>  0.0012  0.5008  0.0000 </r>
       </set>
       <set comment="band 5">
        <r>  0.1809  0.1167  0.0173 </r>
        <r>  0.0782  0.3024  0.0000 </r>
       </set>
       <set comment="band 6">
        <r>  0.1319  0.2078  0.2256 </r>
        <r>  0.0036  0.1685  0.0000 </r>
       </set>
       <set comment="band 7">
        <r>  0.0561  0.2424  0.0789 </r>
        <r>  0.0224  0.1539  0.0000 </r>
       </set>
       <set comment="band 8">
        <r>  0.0009  0.4443  0.1909 </r>
        <r>  0.0015  0.1324  0.0000 </r>
       </set>
      </set>
      <set comment="kpoint 41">
       <set comment="band 1">
        <r>  0.0470  0.1573  0.0374 </r>
        <r>  0.6035  0.0011  0.0000 </r>
       </set>
       <set comment="band 2">
        <r>  0.4992  0.0216  0.0378 </r>
        <r>  0.0247  0.2537  0.0000 </r>
       </set>
       <set comment="band 3">
        <r>  0.0170  0.3341  0.0288 </r>
        <r>  0.0007  0.4110  0.0000 </r>
       </set>
       <set comment="band 4">
        <r>  0.0007  0.3217  0.0397 </r>
        <r>  0.0001  0.4327  0.0000 </r>
       </set>
       <set comment="band 5">
        <r>  0.0148  0.3052  0.1419 </r>
        <r>  0.0610  0.1154  0.0000 </r>
       </set>
       <set comment="band 6">
        <r>  0.3899  0.0473  0.0964 </r>
        <r>  0.0010  0.2629  0.0000 </r>
       </set>
       <set comment="band 7">
        <r>  0.0002  0.0979  0.2424 </r>
        <r>  0.0145  0.1817  0.0000 </r>
       </set>
       <set comment="band 8">
        <r>  0.0012  0.3437  0.1420 </r>
        <r>  0.0128  0.2312  0.0000 </r>
       </set>
      </set>
      <set comment="kpoint 42">
       <set comment="band 1">
        <r>  0.0125  0.1679  0.0448 </r>
        <r>  0.6234  0.0003  0.0000 </r>
       </set>
       <set comment="band 2">
        <r>  0.5452  0.0201  0.0182 </r>
        <r>  0.0049  0.2581  0.0000 </r>
       </set>
       <set comment="band 3">
        <r>  0.0138  0.3690  0.0281 </r>
        <r>  0.0007  0.3614  0.0000 </r>
       </set>
       <set comment="band 4">
        <r>  0.0029  0.3266  0.0369 </r>
        <r>  0.0003  0.4266  0.0000 </r>
       </set>
       <set comment="band 5">
        <r>  0.0189  0.2671  0.1967 </r>
        <r>  0.0428  0.1229  0.0000 </r>
       </set>
       <set comment="band 6">
        <r>  0.3684  0.0131  0.0609 </r>
        <r>  0.0022  0.3456  0.0000 </r>
       </set>
       <set comment="band 7">
        <r>  0.0082  0.1567  0.1743 </r>
        <r>  0.0248  0.2231  0.0000 </r>
       </set>
       <set comment="band 8">
        <r>  0.0020  0.2947  0.1726 </r>
        <r>  0.0260  0.1841  0.0000 </r>
       </set>
      </set>
      <set comment="kpoint 43">
       <set comment="band 1">
        <r>  0.0157  0.1623  0.0462 </r>
        <r>  0.6246  0.0002  0.0000 </r>
       </set>
       <set comment="band 2">
        <r>  0.5445  0.0377  0.0066 </r>
        <r>  0.0035  0.2579  0.0000 </r>
       </set>
       <set comment="band 3">
        <r>  0.0136  0.3778  0.0331 </r>
        <r>  0.0003  0.3360  0.0000 </r>
       </set>
       <set comment="band 4">
        <r>  0.0043  0.3028  0.0467 </r>
        <r>  0.0006  0.4435  0.0000 </r>
       </set>
       <set comment="band 5">
        <r>  0.0537  0.2292  0.2250 </r>
        <r>  0.0289  0.1272  0.0000 </r>
       </set>
       <set comment="band 6">
        <r>  0.2892  0.0232  0.0408 </r>
        <r>  0.0144  0.3820  0.0000 </r>
       </set>
       <set comment="band 7">
        <r>  0.0384  0.2184  0.1081 </r>
        <r>  0.0371  0.2385  0.0000 </r>
       </set>
       <set comment="band 8">
        <r>  0.0032  0.2787  0.1995 </r>
        <r>  0.0165  0.1725  0.0000 </r>
       </set>
      </set>
      <set comment="kpoint 44">
       <set comment="band 1">
        <r>  0.0000  0.1783  0.0445 </r>
        <r>  0.6267  0.0000  0.0000 </r>
       </set>
       <set comment="band 2">
        <r>  0.5592  0.0015  0.0261 </r>
        <r>  0.0000  0.2576  0.0000 </r>
       </set>
       <set comment="band 3">
        <r>  0.0000  0.3758  0.0135 </r>
        <r>  0.0010  0.3988  0.0000 </r>
       </set>
       <set comment="band 4">
        <r>  0.0065  0.3307  0.0350 </r>
        <r>  0.0000  0.4162  0.0000 </r>
       </set>
       <set comment="band 5">
        <r>  0.0000  0.3300  0.1937 </r>
        <r>  0.0538  0.0636  0.0000 </r>
       </set>
       <set comment="band 6">
        <r>  0.4113  0.0004  0.0885 </r>
        <r>  0.0000  0.2910  0.0000 </r>
       </set>
       <set comment="band 7">
        <r>  0.0036  0.0066  0.2301 </r>
        <r>  0.0000  0.2727  0.0000 </r>
       </set>
       <set comment="band 8">
        <r>  0.0000  0.3911  0.1236 </r>
        <r>  0.0337  0.1986  0.0000 </r>
       </set>
      </set>
      <set comment="kpoint 45">
       <set comment="band 1">
        <r>  0.0324  0.1566  0.0429 </r>
        <r>  0.6152  0.0007  0.0000 </r>
       </set>
       <set comment="band 2">
        <r>  0.5065  0.0508  0.0160 </r>
        <r>  0.0136  0.2551  0.0000 </r>
       </set>
       <set comment="band 3">
        <r>  0.0355  0.3470  0.0314 </r>
        <r>  0.0008  0.3604  0.0000 </r>
       </set>
       <set comment="band 4">
        <r>  0.0048  0.3121  0.0498 </r>
        <r>  0.0006  0.4234  0.0000 </r>
       </set>
       <set comment="band 5">
        <r>  0.0575  0.1640  0.1528 </r>
        <r>  0.0333  0.2533  0.0000 </r>
       </set>
       <set comment="band 6">
        <r>  0.3009  0.0754  0.1137 </r>
        <r>  0.0084  0.2944  0.0000 </r>
       </set>
       <set comment="band 7">
        <r>  0.0218  0.2868  0.1118 </r>
        <r>  0.0462  0.1198  0.0000 </r>
       </set>
       <set comment="band 8">
        <r>  0.0030  0.2350  0.1968 </r>
        <r>  0.0134  0.2243  0.0000 </r>
       </set>
      </set>
      <set comment="kpoint 46">
       <set comment="band 1">
        <r>  0.0117  0.1639  0.0469 </r>
        <r>  0.6265  0.0002  0.0000 </r>
       </set>
       <set comment="band 2">
        <r>  0.5462  0.0356  0.0064 </r>
        <r>  0.0026  0.2596  0.0000 </r>
       </set>
       <set comment="band 3">
        <r>  0.0235  0.3631  0.0328 </r>
        <r>  0.0015  0.3471  0.0000 </r>
       </set>
       <set comment="band 4">
        <r>  0.0028  0.3313  0.0440 </r>
        <r>  0.0002  0.4071  0.0000 </r>
       </set>
       <set comment="band 5">
        <r>  0.0022  0.1333  0.2618 </r>
        <r>  0.0002  0.2536  0.0000 </r>
       </set>
       <set comment="band 6">
        <r>  0.3443  0.0599  0.0263 </r>
        <r>  0.0248  0.3333  0.0000 </r>
       </set>
       <set comment="band 7">
        <r>  0.0346  0.3546  0.0769 </r>
        <r>  0.0636  0.1189  0.0000 </r>
       </set>
       <set comment="band 8">
        <r>  0.0014  0.1685  0.2105 </r>
        <r>  0.0152  0.2211  0.0000 </r>
       </set>
      </set>
      <set comment="kpoint 47">
       <set comment="band 1">
        <r>  0.0000  0.1707  0.0480 </r>
        <r>  0.6311  0.0000  0.0000 </r>
       </set>
       <set comment="band 2">
        <r>  0.5816  0.0009  0.0104 </r>
        <r>  0.0000  0.2633  0.0000 </r>
       </set>
       <set comment="band 3">
        <r>  0.0000  0.4188  0.0032 </r>
        <r>  0.0003  0.3568  0.0000 </r>
       </set>
       <set comment="band 4">
        <r>  0.0033  0.3189  0.0615 </r>
        <r>  0.0000  0.3852  0.0000 </r>
       </set>
       <set comment="band 5">
        <r>  0.0000  0.1912  0.2485 </r>
        <r>  0.0169  0.1989  0.0000 </r>
       </set>
       <set comment="band 6">
        <r>  0.3882  0.0001  0.0241 </r>
        <r>  0.0000  0.3906  0.0000 </r>
       </set>
       <set comment="band 7">
        <r>  0.0000  0.4864  0.0796 </r>
        <r>  0.0878  0.0518  0.0000 </r>
       </set>
       <set comment="band 8">
        <r>  0.0006  0.0144  0.2382 </r>
        <r>  0.0000  0.2757  0.0000 </r>
       </set>
      </set>
     </set>
    </set>
   </array>
  </projected>
 </calculation>
 <structure name="finalpos" >
  <crystal>
   <varray name="basis" >
    <v>       0.00000000       2.55141955       2.55141955 </v>
    <v>       2.55141955       0.00000000       2.55141955 </v>
    <v>       2.55141955       2.55141955       0.00000000 </v>
   </varray>
   <i name="volume">     33.21816452 </i>
   <varray name="rec_basis" >
    <v>      -0.19596934       0.19596934       0.19596934 </v>
    <v>       0.19596934      -0.19596934       0.19596934 </v>
    <v>       0.19596934       0.19596934      -0.19596934 </v>
   </varray>
  </crystal>
  <varray name="positions" >
   <v>       0.00000000       0.00000000       0.00000000 </v>
   <v>       0.25000000       0.25000000       0.25000000 </v>
  </varray>
 </structure>
</modeling>
