InN                                     
           1
     0.000000    2.551420    2.551420
     2.551420    0.000000    2.551420
     2.551420    2.551420    0.000000
   In   N 
   1   1
Direct configuration=     1
   0.00000000  0.00000000  0.00000000
   0.25000000  0.25000000  0.25000000
