   2   2   1   0
  0.1065721E+02  0.3112167E-09  0.3112167E-09  0.3112167E-09  0.5000000E-15
  1.000000000000000E-004
  CAR 
 AlN                                     
     22.72552609    -10.60841304   11      6.89190500      1.00000000
    -10.608  0.0000E+00  0.0000E+00
     -7.275  0.1321E-03  0.6864E-02
     -3.942  0.0000E+00  0.2000E-01
     -0.608  0.0000E+00  0.2000E-01
      2.725  0.2993E-05  0.4023E-01
      6.059  0.0000E+00  0.8000E-01
      9.392  0.0000E+00  0.8003E-01
     12.725  0.6513E-10  0.9444E-01
     16.059  0.1558E-03  0.1159E+00
     19.392  0.4772E-06  0.1561E+00
     22.726  0.0000E+00  0.1600E+00
     22.72552609    -10.60841304   11      6.89190500      1.00000000
    -10.608  0.0000E+00  0.0000E+00  0.0000E+00
     -7.275  0.6150E-03  0.3923E-03  0.0000E+00
     -3.942  0.0000E+00  0.0000E+00  0.0000E+00
     -0.608  0.0000E+00  0.0000E+00  0.0000E+00
      2.725  0.2182E-04  0.1830E-04  0.0000E+00
      6.059  0.0000E+00  0.0000E+00  0.0000E+00
      9.392  0.0000E+00  0.0000E+00  0.0000E+00
     12.725  0.1654E-09  0.4512E-09  0.0000E+00
     16.059  0.1448E-02  0.9972E-03  0.0000E+00
     19.392  0.1732E-06  0.1046E-04  0.0000E+00
     22.726  0.0000E+00  0.0000E+00  0.0000E+00
     22.72552609    -10.60841304   11      6.89190500      1.00000000
    -10.608  0.0000E+00  0.0000E+00  0.0000E+00
     -7.275  0.7388E-02  0.3712E-04  0.0000E+00
     -3.942  0.0000E+00  0.0000E+00  0.0000E+00
     -0.608  0.0000E+00  0.0000E+00  0.0000E+00
      2.725  0.1376E-07  0.1170E-03  0.0000E+00
      6.059  0.0000E+00  0.0000E+00  0.0000E+00
      9.392  0.0000E+00  0.0000E+00  0.0000E+00
     12.725  0.3915E-10  0.9088E-09  0.0000E+00
     16.059  0.5515E-03  0.2100E-02  0.0000E+00
     19.392  0.8653E-20  0.7434E-05  0.0000E+00
     22.726  0.0000E+00  0.0000E+00  0.0000E+00
