    2    2  100    1
  0.1065721E+02  0.3112167E-09  0.3112167E-09  0.3112167E-09  0.5000000E-15
  1.000000000000000E-004
  CAR 
 AlN                                     
      8     72      8
 
  0.0000000E+00  0.0000000E+00  0.0000000E+00  0.5787037E-03
    1       -9.093234   1.000000
    2        5.756809   1.000000
    3        5.756809   1.000000
    4        5.756810   1.000000
    5        9.755089   0.000000
    6       18.092469   0.000000
    7       18.092469   0.000000
    8       18.092469   0.000000
 
  0.8333333E-01  0.3312249E-17 -0.3094559E-17  0.4629630E-02
    1       -8.993917   1.000000
    2        5.166414   1.000000
    3        5.720556   1.000000
    4        5.720557   1.000000
    5       10.245799   0.000000
    6       17.814555   0.000000
    7       18.191667   0.000000
    8       18.191667   0.000000
 
  0.1666667E+00  0.5364357E-17 -0.4928976E-17  0.4629630E-02
    1       -8.706489   1.000000
    2        3.914777   1.000000
    3        5.625118   1.000000
    4        5.625118   1.000000
    5       11.183509   0.000000
    6       17.187387   0.000000
    7       18.263653   0.000000
    8       18.263653   0.000000
 
  0.2500000E+00  0.1041622E-17 -0.3885508E-18  0.4629630E-02
    1       -8.266818   1.000000
    2        2.530209   1.000000
    3        5.502342   1.000000
    4        5.502342   1.000000
    5       12.021119   0.000000
    6       16.522599   0.000000
    7       17.896441   0.000000
    8       17.896441   0.000000
 
  0.3333333E+00 -0.3281114E-17  0.4151875E-17  0.4629630E-02
    1       -7.750851   1.000000
    2        1.268127   1.000000
    3        5.387355   1.000000
    4        5.387355   1.000000
    5       12.570901   0.000000
    6       15.974022   0.000000
    7       17.328018   0.000000
    8       17.328018   0.000000
 
  0.4166667E+00 -0.8863990E-17  0.9952441E-17  0.4629630E-02
    1       -7.299462   1.000000
    2        0.345135   1.000000
    3        5.307620   1.000000
    4        5.307620   1.000000
    5       12.848889   0.000000
    6       15.603461   0.000000
    7       16.908815   0.000000
    8       16.908815   0.000000
 
  0.5000000E+00  0.2083243E-17 -0.7771016E-18  0.2314815E-02
    1       -7.111473   1.000000
    2       -0.003721   1.000000
    3        5.279262   1.000000
    4        5.279262   1.000000
    5       12.931336   0.000000
    6       15.469097   0.000000
    7       16.760198   0.000000
    8       16.760198   0.000000
 
  0.8333333E-01  0.8333333E-01 -0.2629616E-17  0.3472222E-02
    1       -8.960900   1.000000
    2        5.168299   1.000000
    3        5.613346   1.000000
    4        5.613346   1.000000
    5       10.397654   0.000000
    6       17.646232   0.000000
    7       18.286450   0.000000
    8       18.286450   0.000000
 
  0.1666667E+00  0.8333333E-01 -0.1527682E-16  0.1388889E-01
    1       -8.736318   1.000000
    2        4.237555   1.000000
    3        5.460188   1.000000
    4        5.547163   1.000000
    5       11.140517   0.000000
    6       17.165458   0.000000
    7       18.250434   0.000000
    8       18.461860   0.000000
 
  0.2500000E+00  0.8333333E-01 -0.4493596E-17  0.1388889E-01
    1       -8.346828   1.000000
    2        2.962298   1.000000
    3        5.307410   1.000000
    4        5.438907   1.000000
    5       11.958464   0.000000
    6       16.568964   0.000000
    7       17.607784   0.000000
    8       18.340404   0.000000
 
  0.3333333E+00  0.8333333E-01  0.4682969E-19  0.1388889E-01
    1       -7.852832   1.000000
    2        1.701986   1.000000
    3        5.195095   1.000000
    4        5.272194   1.000000
    5       12.582058   0.000000
    6       15.802530   0.000000
    7       17.282922   0.000000
    8       17.869920   0.000000
 
  0.4166667E+00  0.8333333E-01 -0.9422572E-17  0.1388889E-01
    1       -7.370036   1.000000
    2        0.683085   1.000000
    3        5.095223   1.000000
    4        5.148303   1.000000
    5       12.987009   0.000000
    6       15.105987   0.000000
    7       17.256484   0.000000
    8       17.370899   0.000000
 
  0.5000000E+00  0.8333333E-01  0.7603461E-17  0.1388889E-01
    1       -7.080797   1.000000
    2        0.141107   1.000000
    3        4.953109   1.000000
    4        5.175217   1.000000
    5       13.236530   0.000000
    6       14.695013   0.000000
    7       17.055145   0.000000
    8       17.294424   0.000000
 
 -0.4166667E+00  0.8333333E-01  0.1212482E-17  0.1388889E-01
    1       -7.143871   1.000000
    2        0.255865   1.000000
    3        4.878912   1.000000
    4        5.268551   1.000000
    5       13.249302   0.000000
    6       14.767197   0.000000
    7       17.008688   0.000000
    8       17.332130   0.000000
 
 -0.3333333E+00  0.8333333E-01  0.7013048E-17  0.1388889E-01
    1       -7.520722   1.000000
    2        0.983177   1.000000
    3        4.892138   1.000000
    4        5.407523   1.000000
    5       12.988126   0.000000
    6       15.319056   0.000000
    7       17.258480   0.000000
    8       17.362932   0.000000
 
 -0.2500000E+00  0.8333333E-01 -0.3716494E-17  0.1388889E-01
    1       -8.024536   1.000000
    2        2.101015   1.000000
    3        4.998062   1.000000
    4        5.559931   1.000000
    5       12.490847   0.000000
    6       16.121061   0.000000
    7       17.461514   0.000000
    8       17.773782   0.000000
 
 -0.1666667E+00  0.8333333E-01  0.8239313E-18  0.1388889E-01
    1       -8.493011   1.000000
    2        3.367608   1.000000
    3        5.189095   1.000000
    4        5.685996   1.000000
    5       11.736747   0.000000
    6       16.899974   0.000000
    7       17.804044   0.000000
    8       18.318845   0.000000
 
 -0.8333333E-01  0.8333333E-01  0.6624498E-17  0.6944444E-02
    1       -8.831880   1.000000
    2        4.511891   1.000000
    3        5.455435   1.000000
    4        5.747071   1.000000
    5       10.856949   0.000000
    6       17.460662   0.000000
    7       18.195050   0.000000
    8       18.326601   0.000000
 
  0.1666667E+00  0.1666667E+00 -0.5259231E-17  0.3472222E-02
    1       -8.578932   1.000000
    2        4.032007   1.000000
    3        5.245998   1.000000
    4        5.245999   1.000000
    5       11.477715   0.000000
    6       16.690245   0.000000
    7       18.262204   0.000000
    8       18.808345   0.000000
 
  0.2500000E+00  0.1666667E+00 -0.1470941E-16  0.1388889E-01
    1       -8.253250   1.000000
    2        3.178588   1.000000
    3        5.044665   1.000000
    4        5.068439   1.000000
    5       11.901786   0.000000
    6       16.297759   0.000000
    7       17.184718   0.000000
    8       18.979310   0.000000
 
  0.3333333E+00  0.1666667E+00 -0.3926176E-17  0.1388889E-01
    1       -7.807600   1.000000
    2        2.122333   1.000000
    3        4.822625   1.000000
    4        4.905415   1.000000
    5       12.246634   0.000000
    6       15.861361   0.000000
    7       16.811256   0.000000
    8       18.743891   0.000000
 
  0.4166667E+00  0.1666667E+00  0.1874390E-17  0.1388889E-01
    1       -7.335662   1.000000
    2        1.164295   1.000000
    3        4.503188   1.000000
    4        4.857209   1.000000
    5       12.512886   0.000000
    6       15.248227   0.000000
    7       17.198136   0.000000
    8       18.283056   0.000000
 
  0.5000000E+00  0.1666667E+00  0.2238275E-17  0.1388889E-01
    1       -6.990568   1.000000
    2        0.541479   1.000000
    3        4.201155   1.000000
    4        4.908508   1.000000
    5       12.829878   0.000000
    6       14.741126   0.000000
    7       17.633751   0.000000
    8       17.863935   0.000000
 
 -0.4166667E+00  0.1666667E+00 -0.2355520E-16  0.1388889E-01
    1       -6.937455   1.000000
    2        0.454010   1.000000
    3        3.998735   1.000000
    4        5.048440   1.000000
    5       13.291622   0.000000
    6       14.376813   0.000000
    7       17.630175   0.000000
    8       17.719629   0.000000
 
 -0.3333333E+00  0.1666667E+00  0.1647863E-17  0.1388889E-01
    1       -7.206431   1.000000
    2        0.924538   1.000000
    3        3.957556   1.000000
    4        5.247326   1.000000
    5       13.617078   0.000000
    6       14.418886   0.000000
    7       17.442912   0.000000
    8       17.643134   0.000000
 
 -0.2500000E+00  0.1666667E+00 -0.3512959E-17  0.1388889E-01
    1       -7.657191   1.000000
    2        1.750332   1.000000
    3        4.132045   1.000000
    4        5.458086   1.000000
    5       13.246429   0.000000
    6       15.285410   0.000000
    7       17.080477   0.000000
    8       17.906749   0.000000
 
 -0.1666667E+00  0.1666667E+00  0.1072871E-16  0.6944444E-02
    1       -8.123120   1.000000
    2        2.636974   1.000000
    3        4.569458   1.000000
    4        5.622223   1.000000
    5       12.539583   0.000000
    6       16.379020   0.000000
    7       17.025574   0.000000
    8       18.279078   0.000000
 
  0.2500000E+00  0.2500000E+00 -0.7888847E-17  0.3472222E-02
    1       -7.997994   1.000000
    2        2.887335   1.000000
    3        4.792120   1.000000
    4        4.792120   1.000000
    5       11.609031   0.000000
    6       15.819674   0.000000
    7       17.088370   0.000000
    8       19.530492   0.000000
 
  0.3333333E+00  0.2500000E+00 -0.1081558E-16  0.1388889E-01
    1       -7.620183   1.000000
    2        2.227147   1.000000
    3        4.502579   1.000000
    4        4.610122   1.000000
    5       11.350717   0.000000
    6       15.553302   0.000000
    7       17.078228   0.000000
    8       19.677864   0.000000
 
  0.4166667E+00  0.2500000E+00 -0.3416277E-16  0.1388889E-01
    1       -7.196580   1.000000
    2        1.540499   1.000000
    3        4.015895   1.000000
    4        4.534572   1.000000
    5       11.340094   0.000000
    6       15.571144   0.000000
    7       17.195466   0.000000
    8       19.410083   0.000000
 
  0.5000000E+00  0.2500000E+00  0.9175907E-18  0.1388889E-01
    1       -6.850537   1.000000
    2        1.051973   1.000000
    3        3.459209   1.000000
    4        4.578495   1.000000
    5       11.582553   0.000000
    6       15.557553   0.000000
    7       17.627191   0.000000
    8       18.982075   0.000000
 
 -0.4166667E+00  0.2500000E+00 -0.2352772E-16  0.1388889E-01
    1       -6.723868   1.000000
    2        0.915572   1.000000
    3        3.034852   1.000000
    4        4.733866   1.000000
    5       12.061589   0.000000
    6       15.389089   0.000000
    7       17.924977   0.000000
    8       18.588670   0.000000
 
 -0.3333333E+00  0.2500000E+00 -0.1772715E-16  0.1388889E-01
    1       -6.878714   1.000000
    2        1.125903   1.000000
    3        2.927948   1.000000
    4        4.970975   1.000000
    5       12.759307   0.000000
    6       15.108849   0.000000
    7       17.628474   0.000000
    8       18.302554   0.000000
 
 -0.2500000E+00  0.2500000E+00  0.2083243E-17  0.6944444E-02
    1       -7.236673   1.000000
    2        1.450160   1.000000
    3        3.316917   1.000000
    4        5.236806   1.000000
    5       13.476748   0.000000
    6       14.792952   0.000000
    7       17.182545   0.000000
    8       18.100575   0.000000
 
  0.3333333E+00  0.3333333E+00 -0.1051846E-16  0.3472222E-02
    1       -7.322432   1.000000
    2        1.902732   1.000000
    3        4.381913   1.000000
    4        4.381914   1.000000
    5       10.517814   0.000000
    6       14.982687   0.000000
    7       17.828707   0.000000
    8       20.308704   0.000000
 
  0.4166667E+00  0.3333333E+00 -0.1466677E-16  0.1388889E-01
    1       -6.978932   1.000000
    2        1.485008   1.000000
    3        4.007742   1.000000
    4        4.265355   1.000000
    5       10.192522   0.000000
    6       14.880962   0.000000
    7       18.192848   0.000000
    8       20.412856   0.000000
 
  0.5000000E+00  0.3333333E+00 -0.3233521E-16  0.1388889E-01
    1       -6.687824   1.000000
    2        1.266574   1.000000
    3        3.269735   1.000000
    4        4.279895   1.000000
    5       10.403669   0.000000
    6       15.236415   0.000000
    7       18.329275   0.000000
    8       20.110826   0.000000
 
 -0.4166667E+00  0.3333333E+00 -0.1236279E-16  0.1388889E-01
    1       -6.554613   1.000000
    2        1.388144   1.000000
    3        2.445189   1.000000
    4        4.423147   1.000000
    5       10.958255   0.000000
    6       15.684457   0.000000
    7       18.388314   0.000000
    8       19.610131   0.000000
 
 -0.3333333E+00  0.3333333E+00 -0.6562227E-17  0.6944444E-02
    1       -6.630894   1.000000
    2        1.527372   1.000000
    3        2.132068   1.000000
    4        4.670307   1.000000
    5       11.756675   0.000000
    6       15.715685   0.000000
    7       18.059670   0.000000
    8       18.999261   0.000000
 
  0.4166667E+00  0.4166667E+00 -0.1314808E-16  0.3472222E-02
    1       -6.738164   1.000000
    2        1.192653   1.000000
    3        4.104033   1.000000
    4        4.104034   1.000000
    5        9.461926   0.000000
    6       14.423351   0.000000
    7       18.929556   0.000000
    8       20.951085   0.000000
 
  0.5000000E+00  0.4166667E+00 -0.1618762E-16  0.1388889E-01
    1       -6.551318   1.000000
    2        1.054728   1.000000
    3        3.714280   1.000000
    4        4.077526   1.000000
    5        9.462578   0.000000
    6       14.524703   0.000000
    7       19.148700   0.000000
    8       20.922818   0.000000
 
 -0.4166667E+00  0.4166667E+00 -0.1772798E-16  0.6944444E-02
    1       -6.484920   1.000000
    2        1.216289   1.000000
    3        2.937377   1.000000
    4        4.189887   1.000000
    5       10.056846   0.000000
    6       15.105219   0.000000
    7       18.985616   0.000000
    8       20.437519   0.000000
 
  0.5000000E+00  0.5000000E+00 -0.1577769E-16  0.1736111E-02
    1       -6.497032   1.000000
    2        0.921653   1.000000
    3        4.006429   1.000000
    4        4.006429   1.000000
    5        9.063378   0.000000
    6       14.232701   0.000000
    7       19.413441   0.000000
    8       21.210347   0.000000
 
  0.2500000E+00  0.1666667E+00  0.8333333E-01  0.1388889E-01
    1       -8.460545   1.000000
    2        3.497678   1.000000
    3        5.053185   1.000000
    4        5.514032   1.000000
    5       11.785450   0.000000
    6       16.748085   0.000000
    7       17.575257   0.000000
    8       18.683039   0.000000
 
  0.3333333E+00  0.1666667E+00  0.8333333E-01  0.2777778E-01
    1       -8.041260   1.000000
    2        2.468788   1.000000
    3        4.697924   1.000000
    4        5.410088   1.000000
    5       12.453759   0.000000
    6       16.139503   0.000000
    7       16.971871   0.000000
    8       18.445670   0.000000
 
  0.4166667E+00  0.1666667E+00  0.8333333E-01  0.2777778E-01
    1       -7.554317   1.000000
    2        1.420072   1.000000
    3        4.478676   1.000000
    4        5.239132   1.000000
    5       12.951289   0.000000
    6       15.235097   0.000000
    7       17.144169   0.000000
    8       17.969685   0.000000
 
  0.5000000E+00  0.1666667E+00  0.8333333E-01  0.2777778E-01
    1       -7.134490   1.000000
    2        0.619508   1.000000
    3        4.372911   1.000000
    4        5.080730   1.000000
    5       13.307187   0.000000
    6       14.496490   0.000000
    7       17.476531   0.000000
    8       17.628779   0.000000
 
 -0.4166667E+00  0.1666667E+00  0.8333333E-01  0.1388889E-01
    1       -6.961884   1.000000
    2        0.313379   1.000000
    3        4.344832   1.000000
    4        5.015287   1.000000
    5       13.526359   0.000000
    6       14.126720   0.000000
    7       17.485686   0.000000
    8       17.648814   0.000000
 
  0.3333333E+00  0.2500000E+00  0.8333333E-01  0.1388889E-01
    1       -7.899434   1.000000
    2        2.540086   1.000000
    3        4.559484   1.000000
    4        5.003571   1.000000
    5       11.998861   0.000000
    6       16.083169   0.000000
    7       16.620956   0.000000
    8       19.218289   0.000000
 
  0.4166667E+00  0.2500000E+00  0.8333333E-01  0.2777778E-01
    1       -7.460734   1.000000
    2        1.778706   1.000000
    3        4.142346   1.000000
    4        4.827275   1.000000
    5       12.108818   0.000000
    6       15.845035   0.000000
    7       16.573926   0.000000
    8       18.988296   0.000000
 
  0.5000000E+00  0.2500000E+00  0.8333333E-01  0.2777778E-01
    1       -7.046214   1.000000
    2        1.103751   1.000000
    3        3.803241   1.000000
    4        4.668676   1.000000
    5       12.272560   0.000000
    6       15.382933   0.000000
    7       17.173480   0.000000
    8       18.628248   0.000000
 
 -0.4166667E+00  0.2500000E+00  0.8333333E-01  0.2777778E-01
    1       -6.808693   1.000000
    2        0.741834   1.000000
    3        3.538553   1.000000
    4        4.657792   1.000000
    5       12.535732   0.000000
    6       15.015580   0.000000
    7       17.686910   0.000000
    8       18.343796   0.000000
 
 -0.3333333E+00  0.2500000E+00  0.8333333E-01  0.2777778E-01
    1       -6.865817   1.000000
    2        0.836362   1.000000
    3        3.416519   1.000000
    4        4.801006   1.000000
    5       12.879252   0.000000
    6       14.841273   0.000000
    7       17.609578   0.000000
    8       18.222250   0.000000
 
 -0.2500000E+00  0.2500000E+00  0.8333333E-01  0.2777778E-01
    1       -7.186155   1.000000
    2        1.311893   1.000000
    3        3.537236   1.000000
    4        5.035627   1.000000
    5       13.112178   0.000000
    6       14.990860   0.000000
    7       17.087121   0.000000
    8       18.279701   0.000000
 
 -0.1666667E+00  0.2500000E+00  0.8333333E-01  0.1388889E-01
    1       -7.624453   1.000000
    2        1.916469   1.000000
    3        3.987552   1.000000
    4        5.271698   1.000000
    5       12.951704   0.000000
    6       15.535850   0.000000
    7       16.720843   0.000000
    8       18.418677   0.000000
 
  0.4166667E+00  0.3333333E+00  0.8333333E-01  0.1388889E-01
    1       -7.254581   1.000000
    2        1.769932   1.000000
    3        4.115773   1.000000
    4        4.416377   1.000000
    5       11.002409   0.000000
    6       15.384804   0.000000
    7       17.323425   0.000000
    8       19.861205   0.000000
 
  0.5000000E+00  0.3333333E+00  0.8333333E-01  0.2777778E-01
    1       -6.891191   1.000000
    2        1.392027   1.000000
    3        3.566189   1.000000
    4        4.233504   1.000000
    5       11.072574   0.000000
    6       15.594281   0.000000
    7       17.412832   0.000000
    8       19.595920   0.000000
 
 -0.4166667E+00  0.3333333E+00  0.8333333E-01  0.2777778E-01
    1       -6.649704   1.000000
    2        1.241306   1.000000
    3        2.918005   1.000000
    4        4.249807   1.000000
    5       11.426919   0.000000
    6       15.785425   0.000000
    7       17.708502   0.000000
    8       19.142599   0.000000
 
 -0.3333333E+00  0.3333333E+00  0.8333333E-01  0.2777778E-01
    1       -6.630580   1.000000
    2        1.324821   1.000000
    3        2.503125   1.000000
    4        4.435657   1.000000
    5       11.966069   0.000000
    6       15.683832   0.000000
    7       17.841475   0.000000
    8       18.760008   0.000000
 
 -0.2500000E+00  0.3333333E+00  0.8333333E-01  0.1388889E-01
    1       -6.839613   1.000000
    2        1.349190   1.000000
    3        2.737892   1.000000
    4        4.727933   1.000000
    5       12.614589   0.000000
    6       15.356392   0.000000
    7       17.362939   0.000000
    8       18.591746   0.000000
 
  0.5000000E+00  0.4166667E+00  0.8333333E-01  0.1388889E-01
    1       -6.706522   1.000000
    2        1.256464   1.000000
    3        3.816512   1.000000
    4        3.932837   1.000000
    5       10.027320   0.000000
    6       14.887562   0.000000
    7       18.523514   0.000000
    8       20.286023   0.000000
 
 -0.4166667E+00  0.4166667E+00  0.8333333E-01  0.2777778E-01
    1       -6.525626   1.000000
    2        1.290236   1.000000
    3        3.072743   1.000000
    4        3.916106   1.000000
    5       10.427687   0.000000
    6       15.354522   0.000000
    7       18.562295   0.000000
    8       19.635346   0.000000
 
 -0.3333333E+00  0.4166667E+00  0.8333333E-01  0.1388889E-01
    1       -6.499814   1.000000
    2        1.617600   1.000000
    3        2.245776   1.000000
    4        4.112939   1.000000
    5       11.117677   0.000000
    6       15.864443   0.000000
    7       18.400650   0.000000
    8       18.954393   0.000000
 
 -0.4166667E+00  0.5000000E+00  0.8333333E-01  0.6944444E-02
    1       -6.483914   1.000000
    2        1.070801   1.000000
    3        3.713139   1.000000
    4        3.739176   1.000000
    5        9.666776   0.000000
    6       14.716452   0.000000
    7       19.181717   0.000000
    8       20.295400   0.000000
 
  0.5000000E+00  0.3333333E+00  0.1666667E+00  0.1388889E-01
    1       -7.073227   1.000000
    2        1.496140   1.000000
    3        3.473497   1.000000
    4        4.554741   1.000000
    5       12.115427   0.000000
    6       16.050782   0.000000
    7       16.391467   0.000000
    8       19.036969   0.000000
 
 -0.4166667E+00  0.3333333E+00  0.1666667E+00  0.2777778E-01
    1       -6.755583   1.000000
    2        1.286584   1.000000
    3        3.018490   1.000000
    4        4.258862   1.000000
    5       12.166215   0.000000
    6       15.771767   0.000000
    7       17.070403   0.000000
    8       18.852698   0.000000
 
 -0.3333333E+00  0.3333333E+00  0.1666667E+00  0.1388889E-01
    1       -6.630267   1.000000
    2        1.200612   1.000000
    3        2.864901   1.000000
    4        4.134683   1.000000
    5       12.188832   0.000000
    6       15.638575   0.000000
    7       17.579715   0.000000
    8       18.634028   0.000000
 
 -0.4166667E+00  0.4166667E+00  0.1666667E+00  0.1388889E-01
    1       -6.629443   1.000000
    2        1.422684   1.000000
    3        3.132722   1.000000
    4        3.728690   1.000000
    5       11.264497   0.000000
    6       16.013393   0.000000
    7       17.310012   0.000000
    8       19.234749   0.000000
 
 -0.3333333E+00  0.4166667E+00  0.1666667E+00  0.2777778E-01
    1       -6.499483   1.000000
    2        1.657231   1.000000
    3        2.528863   1.000000
    4        3.581416   1.000000
    5       11.625252   0.000000
    6       16.354281   0.000000
    7       17.526436   0.000000
    8       18.503348   0.000000
 
 -0.2500000E+00  0.4166667E+00  0.1666667E+00  0.1388889E-01
    1       -6.548851   1.000000
    2        1.673362   1.000000
    3        2.375894   1.000000
    4        3.823170   1.000000
    5       11.959373   0.000000
    6       16.217595   0.000000
    7       17.378496   0.000000
    8       18.526076   0.000000
 
 -0.3333333E+00  0.5000000E+00  0.1666667E+00  0.6944444E-02
    1       -6.457315   1.000000
    2        1.498251   1.000000
    3        3.020997   1.000000
    4        3.299449   1.000000
    5       10.961930   0.000000
    6       15.907075   0.000000
    7       18.499475   0.000000
    8       18.509786   0.000000
 
 -0.2500000E+00  0.5000000E+00  0.2500000E+00  0.3472222E-02
    1       -6.443837   1.000000
    2        2.000247   1.000000
    3        2.396611   1.000000
    4        3.110855   1.000000
    5       11.751258   0.000000
    6       17.054702   0.000000
    7       17.516079   0.000000
    8       17.610562   0.000000
