Fri Aug 17 14:43:42 -03 2018
----------------
PBS job running on: halfbeast
in directory:       /home/users/fbonani/TCC/wurtzite/AlN/minimizacao
cpus: 5
gpus: 
nodefile:
halfbeast.fiscomp
halfbeast.fiscomp
halfbeast.fiscomp
halfbeast.fiscomp
halfbeast.fiscomp
----------------
 running on   10 total cores
 distrk:  each k-point on   10 cores,    1 groups
 distr:  one band on    5 cores,    2 groups
 using from now: INCAR     
 vasp.5.4.4.18Apr17-6-g9f103f2a35 (build Apr 10 2018 17:34:00) complex          
  
 POSCAR found type information on POSCAR  Al N 
 POSCAR found :  2 types and       4 ions
 scaLAPACK will be used
 LDA part: xc-table for Pade appr. of Perdew
 generate k-points for:   11   11    6
 POSCAR, INCAR and KPOINTS ok, starting setup
 FFT: planning ...
 WAVECAR not read
 entering main loop
       N       E                     dE             d eps       ncg     rms          rms(c)
DAV:   1     0.739994586543E+02    0.73999E+02   -0.95633E+03  1536   0.167E+03
DAV:   2    -0.285911394536E+02   -0.10259E+03   -0.93813E+02  2248   0.310E+02
DAV:   3    -0.344098038029E+02   -0.58187E+01   -0.57898E+01  2024   0.767E+01
DAV:   4    -0.344807116184E+02   -0.70908E-01   -0.70860E-01  1844   0.108E+01
DAV:   5    -0.344820009280E+02   -0.12893E-02   -0.12892E-02  1960   0.142E+00
DAV:   6    -0.344820363592E+02   -0.35431E-04   -0.35431E-04  1860   0.246E-01
DAV:   7    -0.344820375216E+02   -0.11624E-05   -0.11624E-05  1928   0.418E-02
DAV:   8    -0.344820375583E+02   -0.36748E-07   -0.36733E-07  1372   0.802E-03    0.120E+01
DAV:   9    -0.307514800011E+02    0.37306E+01   -0.54283E+00  1928   0.207E+01    0.624E+00
DAV:  10    -0.298034804008E+02    0.94800E+00   -0.46441E+00  1968   0.189E+01    0.344E+00
DAV:  11    -0.298019389638E+02    0.15414E-02   -0.12998E-01  1728   0.351E+00    0.108E+00
DAV:  12    -0.297923047545E+02    0.96342E-02   -0.34064E-02  1876   0.153E+00    0.236E-01
DAV:  13    -0.297921222022E+02    0.18255E-03   -0.23061E-03  1848   0.501E-01    0.945E-02
DAV:  14    -0.297922313897E+02   -0.10919E-03   -0.14706E-04  1744   0.143E-01    0.373E-02
DAV:  15    -0.297922090444E+02    0.22345E-04   -0.64086E-05  1952   0.805E-02    0.537E-03
DAV:  16    -0.297922098678E+02   -0.82332E-06   -0.78739E-06  1808   0.285E-02
   1 F= -.29792210E+02 E0= -.29792210E+02  d E =-.297922E+02
 curvature:   0.00 expect dE= 0.000E+00 dE for cont linesearch  0.000E+00
 trial: gam= 0.00000 g(F)=  0.521E-07 g(S)=  0.777E-05 ort = 0.000E+00 (trialstep = 0.100E+01)
 search vector abs. value=  0.782E-05
 reached required accuracy - stopping structural energy minimisation
Fri Aug 17 14:43:50 -03 2018
