       N       E                     dE             d eps       ncg     rms          rms(c)
DAV:   1     0.232911732820E+02    0.23291E+02   -0.50725E+03  1152   0.120E+03
DAV:   2    -0.160091924383E+02   -0.39300E+02   -0.38642E+02  1544   0.213E+02
DAV:   3    -0.171914976386E+02   -0.11823E+01   -0.11823E+01  1360   0.399E+01
DAV:   4    -0.171958920099E+02   -0.43944E-02   -0.43944E-02  1776   0.266E+00
DAV:   5    -0.171958979045E+02   -0.58946E-05   -0.58946E-05  1400   0.771E-02
DAV:   6    -0.171958979177E+02   -0.13242E-07   -0.13242E-07  1800   0.375E-03
DAV:   7    -0.171958979177E+02   -0.20179E-10   -0.20162E-10  1496   0.108E-04
DAV:   8    -0.171958979177E+02   -0.56843E-13   -0.21266E-13  1408   0.465E-06    0.851E+00
DAV:   9    -0.153310004817E+02    0.18649E+01   -0.44017E+00  1408   0.155E+01    0.431E+00
DAV:  10    -0.148609746832E+02    0.47003E+00   -0.30712E+00  1544   0.128E+01    0.250E+00
DAV:  11    -0.148544986600E+02    0.64760E-02   -0.44157E-02  1264   0.266E+00    0.314E-01
DAV:  12    -0.148532043650E+02    0.12943E-02   -0.82520E-03  1344   0.631E-01    0.145E-01
DAV:  13    -0.148532079626E+02   -0.35976E-05   -0.40513E-04  1336   0.208E-01    0.102E-01
DAV:  14    -0.148532940040E+02   -0.86041E-04   -0.11483E-04  1216   0.107E-01    0.734E-02
DAV:  15    -0.148532844766E+02    0.95273E-05   -0.91219E-05  1544   0.806E-02    0.456E-03
DAV:  16    -0.148532845724E+02   -0.95777E-07   -0.15113E-06  1424   0.136E-02    0.353E-03
DAV:  17    -0.148532847126E+02   -0.14021E-06   -0.26037E-07  1192   0.400E-03    0.175E-03
DAV:  18    -0.148532846708E+02    0.41787E-07   -0.22338E-07   688   0.418E-03
   1 F= -.14853285E+02 E0= -.14853285E+02  d E =-.148533E+02
