 vasp.5.4.4.18Apr17-6-g9f103f2a35 (build Apr 10 2018 17:34:00) complex          
  
 executed on             LinuxIFC date 2018.10.04  08:03:55
 running on   10 total cores
 distrk:  each k-point on   10 cores,    1 groups
 distr:  one band on NCORES_PER_BAND=   5 cores,    2 groups


--------------------------------------------------------------------------------------------------------


 INCAR:
 POTCAR:    PAW_PBE Al 04Jan2001                  
 POTCAR:    PAW_PBE N 08Apr2002                   
 POTCAR:    PAW_PBE Al 04Jan2001                  
  local pseudopotential read in
  partial core-charges read in
  partial kinetic energy density read in
  atomic valenz-charges read in
  non local Contribution for L=           0  read in
    real space projection operators read in
  non local Contribution for L=           0  read in
    real space projection operators read in
  non local Contribution for L=           1  read in
    real space projection operators read in
  non local Contribution for L=           1  read in
    real space projection operators read in
    PAW grid and wavefunctions read in
 
   number of l-projection  operators is LMAX  =           4
   number of lm-projection operators is LMMAX =           8
 
 POTCAR:    PAW_PBE N 08Apr2002                   
  local pseudopotential read in
  partial core-charges read in
  partial kinetic energy density read in
  atomic valenz-charges read in
  non local Contribution for L=           0  read in
    real space projection operators read in
  non local Contribution for L=           0  read in
    real space projection operators read in
  non local Contribution for L=           1  read in
    real space projection operators read in
  non local Contribution for L=           1  read in
    real space projection operators read in
    PAW grid and wavefunctions read in
 
   number of l-projection  operators is LMAX  =           4
   number of lm-projection operators is LMMAX =           8
 
  PAW_PBE Al 04Jan2001                  :
 energy of atom  1       EATOM=  -53.5387
 kinetic energy error for atom=    0.0001 (will be added to EATOM!!)
  PAW_PBE N 08Apr2002                   :
 energy of atom  2       EATOM= -264.5486
 kinetic energy error for atom=    0.0029 (will be added to EATOM!!)
 
 
 POSCAR: AlN                                     
  positions in direct lattice
  velocities in cartesian coordinates
 exchange correlation table for  LEXCH =        8
   RHO(1)=    0.500       N(1)  =     2000
   RHO(2)=  100.500       N(2)  =     4000
 


--------------------------------------------------------------------------------------------------------


 ion  position               nearest neighbor table
   1  0.000  0.000  0.000-   2 1.91   2 1.91   2 1.91   2 1.91
   2  0.250  0.250  0.250-   1 1.91   1 1.91   1 1.91   1 1.91
 
  LATTYP: Found a face centered cubic cell.
 ALAT       =     4.4012685904
  
  Lattice vectors:
  
 A1 = (   0.0000000000,   2.2006342952,   2.2006342952)
 A2 = (   2.2006342952,   0.0000000000,   2.2006342952)
 A3 = (   2.2006342952,   2.2006342952,   0.0000000000)


Analysis of symmetry for initial positions (statically):
=====================================================================
 Subroutine PRICEL returns:
 Original cell was already a primitive cell.
 

 Routine SETGRP: Setting up the symmetry group for a 
 face centered cubic supercell.


 Subroutine GETGRP returns: Found 24 space group operations
 (whereof 24 operations were pure point group operations)
 out of a pool of 48 trial point group operations.


The static configuration has the point symmetry T_d .


Analysis of symmetry for dynamics (positions and initial velocities):
=====================================================================
 Subroutine PRICEL returns:
 Original cell was already a primitive cell.
 

 Routine SETGRP: Setting up the symmetry group for a 
 face centered cubic supercell.


 Subroutine GETGRP returns: Found 24 space group operations
 (whereof 24 operations were pure point group operations)
 out of a pool of 48 trial point group operations.


The dynamic configuration has the point symmetry T_d .


 Subroutine INISYM returns: Found 24 space group operations
 (whereof 24 operations are pure point group operations),
 and found     1 'primitive' translations

 
 
 KPOINTS: AlN                                     

Automatic generation of k-mesh.
 generate k-points for:   12   12   12
Space group operators:
 irot       det(A)        alpha          n_x          n_y          n_z        tau_x        tau_y        tau_z
    1     1.000000     0.000000     1.000000     0.000000     0.000000     0.000000     0.000000     0.000000
    2     1.000000   120.000000    -0.577350    -0.577350    -0.577350     0.000000     0.000000     0.000000
    3     1.000000   120.000000     0.577350     0.577350     0.577350     0.000000     0.000000     0.000000
    4    -1.000000    90.000000     0.000000     0.000000    -1.000000     0.000000     0.000000     0.000000
    5    -1.000000   180.000000     0.000000     0.707107     0.707107     0.000000     0.000000     0.000000
    6    -1.000000    90.000000    -0.000000     1.000000     0.000000     0.000000     0.000000     0.000000
    7     1.000000   180.000000     0.000000    -0.000000     1.000000     0.000000     0.000000     0.000000
    8     1.000000   120.000000    -0.577350     0.577350     0.577350     0.000000     0.000000     0.000000
    9     1.000000   120.000000    -0.577350     0.577350    -0.577350     0.000000     0.000000     0.000000
   10    -1.000000    90.000000     0.000000     0.000000     1.000000     0.000000     0.000000     0.000000
   11    -1.000000    90.000000    -1.000000     0.000000     0.000000     0.000000     0.000000     0.000000
   12    -1.000000   180.000000     0.707107     0.000000     0.707107     0.000000     0.000000     0.000000
   13     1.000000   120.000000     0.577350    -0.577350     0.577350     0.000000     0.000000     0.000000
   14     1.000000   120.000000    -0.577350    -0.577350     0.577350     0.000000     0.000000     0.000000
   15     1.000000   180.000000     1.000000     0.000000     0.000000     0.000000     0.000000     0.000000
   16    -1.000000    90.000000     0.000000    -1.000000    -0.000000     0.000000     0.000000     0.000000
   17    -1.000000   180.000000     0.707107     0.707107    -0.000000     0.000000     0.000000     0.000000
   18    -1.000000    90.000000     1.000000     0.000000     0.000000     0.000000     0.000000     0.000000
   19     1.000000   120.000000     0.577350    -0.577350    -0.577350     0.000000     0.000000     0.000000
   20     1.000000   180.000000     0.000000     1.000000     0.000000     0.000000     0.000000     0.000000
   21     1.000000   120.000000     0.577350     0.577350    -0.577350     0.000000     0.000000     0.000000
   22    -1.000000   180.000000     0.000000    -0.707107     0.707107     0.000000     0.000000     0.000000
   23    -1.000000   180.000000     0.707107    -0.707107     0.000000     0.000000     0.000000     0.000000
   24    -1.000000   180.000000     0.707107     0.000000    -0.707107     0.000000     0.000000     0.000000
 
 Subroutine IBZKPT returns following result:
 ===========================================
 
 Found     72 irreducible k-points:
 
 Following reciprocal coordinates:
            Coordinates               Weight
  0.000000  0.000000  0.000000      1.000000
  0.083333  0.000000 -0.000000      8.000000
  0.166667  0.000000 -0.000000      8.000000
  0.250000  0.000000 -0.000000      8.000000
  0.333333 -0.000000  0.000000      8.000000
  0.416667 -0.000000  0.000000      8.000000
  0.500000  0.000000 -0.000000      4.000000
  0.083333  0.083333 -0.000000      6.000000
  0.166667  0.083333 -0.000000     24.000000
  0.250000  0.083333 -0.000000     24.000000
  0.333333  0.083333  0.000000     24.000000
  0.416667  0.083333 -0.000000     24.000000
  0.500000  0.083333  0.000000     24.000000
 -0.416667  0.083333  0.000000     24.000000
 -0.333333  0.083333  0.000000     24.000000
 -0.250000  0.083333 -0.000000     24.000000
 -0.166667  0.083333  0.000000     24.000000
 -0.083333  0.083333  0.000000     12.000000
  0.166667  0.166667 -0.000000      6.000000
  0.250000  0.166667 -0.000000     24.000000
  0.333333  0.166667 -0.000000     24.000000
  0.416667  0.166667  0.000000     24.000000
  0.500000  0.166667  0.000000     24.000000
 -0.416667  0.166667 -0.000000     24.000000
 -0.333333  0.166667  0.000000     24.000000
 -0.250000  0.166667 -0.000000     24.000000
 -0.166667  0.166667  0.000000     12.000000
  0.250000  0.250000 -0.000000      6.000000
  0.333333  0.250000 -0.000000     24.000000
  0.416667  0.250000 -0.000000     24.000000
  0.500000  0.250000  0.000000     24.000000
 -0.416667  0.250000 -0.000000     24.000000
 -0.333333  0.250000 -0.000000     24.000000
 -0.250000  0.250000  0.000000     12.000000
  0.333333  0.333333 -0.000000      6.000000
  0.416667  0.333333 -0.000000     24.000000
  0.500000  0.333333 -0.000000     24.000000
 -0.416667  0.333333 -0.000000     24.000000
 -0.333333  0.333333 -0.000000     12.000000
  0.416667  0.416667 -0.000000      6.000000
  0.500000  0.416667 -0.000000     24.000000
 -0.416667  0.416667 -0.000000     12.000000
  0.500000  0.500000 -0.000000      3.000000
  0.250000  0.166667  0.083333     24.000000
  0.333333  0.166667  0.083333     48.000000
  0.416667  0.166667  0.083333     48.000000
  0.500000  0.166667  0.083333     48.000000
 -0.416667  0.166667  0.083333     24.000000
  0.333333  0.250000  0.083333     24.000000
  0.416667  0.250000  0.083333     48.000000
  0.500000  0.250000  0.083333     48.000000
 -0.416667  0.250000  0.083333     48.000000
 -0.333333  0.250000  0.083333     48.000000
 -0.250000  0.250000  0.083333     48.000000
 -0.166667  0.250000  0.083333     24.000000
  0.416667  0.333333  0.083333     24.000000
  0.500000  0.333333  0.083333     48.000000
 -0.416667  0.333333  0.083333     48.000000
 -0.333333  0.333333  0.083333     48.000000
 -0.250000  0.333333  0.083333     24.000000
  0.500000  0.416667  0.083333     24.000000
 -0.416667  0.416667  0.083333     48.000000
 -0.333333  0.416667  0.083333     24.000000
 -0.416667  0.500000  0.083333     12.000000
  0.500000  0.333333  0.166667     24.000000
 -0.416667  0.333333  0.166667     48.000000
 -0.333333  0.333333  0.166667     24.000000
 -0.416667  0.416667  0.166667     24.000000
 -0.333333  0.416667  0.166667     48.000000
 -0.250000  0.416667  0.166667     24.000000
 -0.333333  0.500000  0.166667     12.000000
 -0.250000  0.500000  0.250000      6.000000
 
 Following cartesian coordinates:
            Coordinates               Weight
  0.000000  0.000000  0.000000      1.000000
 -0.018934  0.018934  0.018934      8.000000
 -0.037868  0.037868  0.037868      8.000000
 -0.056802  0.056802  0.056802      8.000000
 -0.075736  0.075736  0.075736      8.000000
 -0.094670  0.094670  0.094670      8.000000
 -0.113604  0.113604  0.113604      4.000000
  0.000000 -0.000000  0.037868      6.000000
 -0.018934  0.018934  0.056802     24.000000
 -0.037868  0.037868  0.075736     24.000000
 -0.056802  0.056802  0.094670     24.000000
 -0.075736  0.075736  0.113604     24.000000
 -0.094670  0.094670  0.132538     24.000000
  0.113604 -0.113604 -0.075736     24.000000
  0.094670 -0.094670 -0.056802     24.000000
  0.075736 -0.075736 -0.037868     24.000000
  0.056802 -0.056802 -0.018934     24.000000
  0.037868 -0.037868 -0.000000     12.000000
  0.000000  0.000000  0.075736      6.000000
 -0.018934  0.018934  0.094670     24.000000
 -0.037868  0.037868  0.113604     24.000000
 -0.056802  0.056802  0.132538     24.000000
 -0.075736  0.075736  0.151471     24.000000
  0.132538 -0.132538 -0.056802     24.000000
  0.113604 -0.113604 -0.037868     24.000000
  0.094670 -0.094670 -0.018934     24.000000
  0.075736 -0.075736 -0.000000     12.000000
  0.000000  0.000000  0.113604      6.000000
 -0.018934  0.018934  0.132538     24.000000
 -0.037868  0.037868  0.151471     24.000000
 -0.056802  0.056802  0.170405     24.000000
  0.151471 -0.151471 -0.037868     24.000000
  0.132538 -0.132538 -0.018934     24.000000
  0.113604 -0.113604  0.000000     12.000000
  0.000000  0.000000  0.151471      6.000000
 -0.018934  0.018934  0.170405     24.000000
 -0.037868  0.037868  0.189339     24.000000
  0.170405 -0.170405 -0.018934     24.000000
  0.151471 -0.151471  0.000000     12.000000
 -0.000000  0.000000  0.189339      6.000000
 -0.018934  0.018934  0.208273     24.000000
  0.189339 -0.189339  0.000000     12.000000
  0.000000  0.000000  0.227207      3.000000
  0.000000  0.037868  0.075736     24.000000
 -0.018934  0.056802  0.094670     48.000000
 -0.037868  0.075736  0.113604     48.000000
 -0.056802  0.094670  0.132538     48.000000
  0.151471 -0.113604 -0.075736     24.000000
  0.000000  0.037868  0.113604     24.000000
 -0.018934  0.056802  0.132538     48.000000
 -0.037868  0.075736  0.151471     48.000000
  0.170405 -0.132538 -0.056802     48.000000
  0.151471 -0.113604 -0.037868     48.000000
  0.132538 -0.094670 -0.018934     48.000000
  0.113604 -0.075736  0.000000     24.000000
 -0.000000  0.037868  0.151471     24.000000
 -0.018934  0.056802  0.170405     48.000000
  0.189339 -0.151471 -0.037868     48.000000
  0.170405 -0.132538 -0.018934     48.000000
  0.151471 -0.113604  0.000000     24.000000
 -0.000000  0.037868  0.189339     24.000000
  0.208273 -0.170405 -0.018934     48.000000
  0.189339 -0.151471  0.000000     24.000000
  0.227207 -0.189339  0.000000     12.000000
  0.000000  0.075736  0.151471     24.000000
  0.208273 -0.132538 -0.056802     48.000000
  0.189339 -0.113604 -0.037868     24.000000
  0.227207 -0.151471 -0.037868     24.000000
  0.208273 -0.132538 -0.018934     48.000000
  0.189339 -0.113604  0.000000     24.000000
  0.227207 -0.151471  0.000000     12.000000
  0.227207 -0.113604 -0.000000      6.000000
 


--------------------------------------------------------------------------------------------------------




 Dimension of arrays:
   k-points           NKPTS =     72   k-points in BZ     NKDIM =     72   number of bands    NBANDS=      8
   number of dos      NEDOS =     11   number of ions     NIONS =      2
   non local maximal  LDIM  =      4   non local SUM 2l+1 LMDIM =      8
   total plane-waves  NPLWV =  27000
   max r-space proj   IRMAX =      1   max aug-charges    IRDMAX= 394564
   dimension x,y,z NGX =    30 NGY =   30 NGZ =   30
   dimension x,y,z NGXF=    60 NGYF=   60 NGZF=   60
   support grid    NGXF=   120 NGYF=  120 NGZF=  120
   ions per type =               1   1
   NGX,Y,Z   is equivalent  to a cutoff of  16.03, 16.03, 16.03 a.u.
   NGXF,Y,Z  is equivalent  to a cutoff of  32.05, 32.05, 32.05 a.u.

 SYSTEM =  AlN                                     
 POSCAR =  AlN                                     

 Startparameter for this run:
   NWRITE =      1    write-flag & timer
   PREC   = accura    normal or accurate (medium, high low for compatibility)
   ISTART =      0    job   : 0-new  1-cont  2-samecut
   ICHARG =      2    charge: 1-file 2-atom 10-const
   ISPIN  =      1    spin polarized calculation?
   LNONCOLLINEAR =      F non collinear calculations
   LSORBIT =      F    spin-orbit coupling
   INIWAV =      1    electr: 0-lowe 1-rand  2-diag
   LASPH  =      T    aspherical Exc in radial PAW
   METAGGA=      F    non-selfconsistent MetaGGA calc.

 Electronic Relaxation 1
   ENCUT  =  800.0 eV  58.80 Ry    7.67 a.u.   7.18  7.18  7.18*2*pi/ulx,y,z
   ENINI  =  800.0     initial cutoff
   ENAUG  =  627.1 eV  augmentation charge cutoff
   NELM   =    100;   NELMIN=  6; NELMDL= -8     # of ELM steps 
   EDIFF  = 0.1E-06   stopping-criterion for ELM
   LREAL  =      F    real-space projection
   NLSPLINE    = F    spline interpolate recip. space projectors
   LCOMPAT=      F    compatible to vasp.4.4
   GGA_COMPAT  = T    GGA compatible to vasp.4.4-vasp.4.6
   LMAXPAW     = -100 max onsite density
   LMAXMIX     =    6 max onsite mixed and CHGCAR
   VOSKOWN=      0    Vosko Wilk Nusair interpolation
   ROPT   =    0.00000   0.00000
 Ionic relaxation
   EDIFFG = -.1E-02   stopping-criterion for IOM
   NSW    =    100    number of steps for IOM
   NBLOCK =      1;   KBLOCK =    100    inner block; outer block 
   IBRION =      2    ionic relax: 0-MD 1-quasi-New 2-CG
   NFREE  =      1    steps in history (QN), initial steepest desc. (CG)
   ISIF   =      3    stress and relaxation
   IWAVPR =     11    prediction:  0-non 1-charg 2-wave 3-comb
   ISYM   =      2    0-nonsym 1-usesym 2-fastsym
   LCORR  =      T    Harris-Foulkes like correction to forces

   POTIM  = 0.5000    time-step for ionic-motion
   TEIN   =    0.0    initial temperature
   TEBEG  =    0.0;   TEEND  =   0.0 temperature during run
   SMASS  =  -3.00    Nose mass-parameter (am)
   estimated Nose-frequenzy (Omega)   =  0.10E-29 period in steps =****** mass=  -0.221E-27a.u.
   SCALEE = 1.0000    scale energy and forces
   NPACO  =    256;   APACO  = 16.0  distance and # of slots for P.C.
   PSTRESS=    0.0 pullay stress

  Mass of Ions in am
   POMASS =  26.98 14.00
  Ionic Valenz
   ZVAL   =   3.00  5.00
  Atomic Wigner-Seitz radii
   RWIGS  =  -1.00 -1.00
  virtual crystal weights 
   VCA    =   1.00  1.00
   NELECT =       8.0000    total number of electrons
   NUPDOWN=      -1.0000    fix difference up-down

 DOS related values:
   EMIN   =  10.00;   EMAX   =-10.00  energy-range for DOS
   EFERMI =   0.00
   ISMEAR =     0;   SIGMA  =   0.01  broadening in eV -4-tet -1-fermi 0-gaus

 Electronic relaxation 2 (details)
   IALGO  =     38    algorithm
   LDIAG  =      T    sub-space diagonalisation (order eigenvalues)
   LSUBROT=      F    optimize rotation matrix (better conditioning)
   TURBO    =      0    0=normal 1=particle mesh
   IRESTART =      0    0=no restart 2=restart with 2 vectors
   NREBOOT  =      0    no. of reboots
   NMIN     =      0    reboot dimension
   EREF     =   0.00    reference energy to select bands
   IMIX   =      4    mixing-type and parameters
     AMIX     =   0.20;   BMIX     =  0.00
     AMIX_MAG =   0.80;   BMIX_MAG =  0.00
     AMIN     =   0.10
     WC   =   100.;   INIMIX=   1;  MIXPRE=   1;  MAXMIX= -45

 Intra band minimization:
   WEIMIN = 0.0010     energy-eigenvalue tresh-hold
   EBREAK =  0.31E-08  absolut break condition
   DEPER  =   0.30     relativ break condition  

   TIME   =   0.40     timestep for ELM

  volume/ion in A,a.u.               =      10.66        71.92
  Fermi-wavevector in a.u.,A,eV,Ry     =   1.180901  2.231580 18.973705  1.394528
  Thomas-Fermi vector in A             =   2.317185
 
 Write flags
   LWAVE        =      F    write WAVECAR
   LDOWNSAMPLE  =      F    k-point downsampling of WAVECAR
   LCHARG       =      F    write CHGCAR
   LVTOT        =      F    write LOCPOT, total local potential
   LVHAR        =      F    write LOCPOT, Hartree potential only
   LELF         =      F    write electronic localiz. function (ELF)
   LORBIT       =     10    0 simple, 1 ext, 2 COOP (PROOUT), +10 PAW based schemes


 Dipole corrections
   LMONO  =      F    monopole corrections only (constant potential shift)
   LDIPOL =      F    correct potential (dipole corrections)
   IDIPOL =      0    1-x, 2-y, 3-z, 4-all directions 
   EPSILON=  1.0000000 bulk dielectric constant

 Exchange correlation treatment:
   GGA     =    --    GGA type
   LEXCH   =     8    internal setting for exchange type
   VOSKOWN=      0    Vosko Wilk Nusair interpolation
   LHFCALC =     F    Hartree Fock is set to
   LHFONE  =     F    Hartree Fock one center treatment
   AEXX    =    0.0000 exact exchange contribution

 Linear response parameters
   LEPSILON=     F    determine dielectric tensor
   LRPA    =     F    only Hartree local field effects (RPA)
   LNABLA  =     F    use nabla operator in PAW spheres
   LVEL    =     F    velocity operator in full k-point grid
   LINTERFAST=   F  fast interpolation
   KINTER  =     0    interpolate to denser k-point grid
   CSHIFT  =0.1000    complex shift for real part using Kramers Kronig
   OMEGAMAX=  -1.0    maximum frequency
   DEG_THRESHOLD= 0.2000000E-02 threshold for treating states as degnerate
   RTIME   =   -0.100 relaxation time in fs
  (WPLASMAI=    0.000 imaginary part of plasma frequency in eV, 0.658/RTIME)
   DFIELD  = 0.0000000 0.0000000 0.0000000 field for delta impulse in time
 
 Orbital magnetization related:
   ORBITALMAG=     F  switch on orbital magnetization
   LCHIMAG   =     F  perturbation theory with respect to B field
   DQ        =  0.001000  dq finite difference perturbation B field
   LLRAUG    =     F  two centre corrections for induced B field



--------------------------------------------------------------------------------------------------------


 conjugate gradient relaxation of ions
 charge density and potential will be updated during run
 non-spin polarized calculation
 Variant of blocked Davidson
 Davidson routine will perform the subspace rotation
 perform sub-space diagonalisation
    after iterative eigenvector-optimisation
 modified Broyden-mixing scheme, WC =      100.0
 initial mixing is a Kerker type mixing with AMIX =  0.2000 and BMIX =      0.0010
 Hartree-type preconditioning will be used
 using additional bands            4
 reciprocal scheme for non local part
 use partial core corrections
 calculate Harris-corrections to forces 
   (improved forces if not selfconsistent)
 use gradient corrections 
 use of overlap-Matrix (Vanderbilt PP)
 Gauss-broadening in eV      SIGMA  =   0.01


--------------------------------------------------------------------------------------------------------


  energy-cutoff  :      800.00
  volume of cell :       21.31
      direct lattice vectors                 reciprocal lattice vectors
     0.000000000  2.200634295  2.200634295    -0.227207220  0.227207220  0.227207220
     2.200634295  0.000000000  2.200634295     0.227207220 -0.227207220  0.227207220
     2.200634295  2.200634295  0.000000000     0.227207220  0.227207220 -0.227207220

  length of vectors
     3.112166866  3.112166866  3.112166866     0.393534449  0.393534449  0.393534449


 
 k-points in units of 2pi/SCALE and weight: AlN                                     
   0.00000000  0.00000000  0.00000000       0.001
  -0.01893393  0.01893393  0.01893393       0.005
  -0.03786787  0.03786787  0.03786787       0.005
  -0.05680180  0.05680180  0.05680180       0.005
  -0.07573574  0.07573574  0.07573574       0.005
  -0.09466967  0.09466967  0.09466967       0.005
  -0.11360361  0.11360361  0.11360361       0.002
   0.00000000 -0.00000000  0.03786787       0.003
  -0.01893393  0.01893393  0.05680180       0.014
  -0.03786787  0.03786787  0.07573574       0.014
  -0.05680180  0.05680180  0.09466967       0.014
  -0.07573574  0.07573574  0.11360361       0.014
  -0.09466967  0.09466967  0.13253754       0.014
   0.11360361 -0.11360361 -0.07573574       0.014
   0.09466967 -0.09466967 -0.05680180       0.014
   0.07573574 -0.07573574 -0.03786787       0.014
   0.05680180 -0.05680180 -0.01893393       0.014
   0.03786787 -0.03786787 -0.00000000       0.007
   0.00000000 -0.00000000  0.07573574       0.003
  -0.01893393  0.01893393  0.09466967       0.014
  -0.03786787  0.03786787  0.11360361       0.014
  -0.05680180  0.05680180  0.13253754       0.014
  -0.07573574  0.07573574  0.15147148       0.014
   0.13253754 -0.13253754 -0.05680180       0.014
   0.11360361 -0.11360361 -0.03786787       0.014
   0.09466967 -0.09466967 -0.01893393       0.014
   0.07573574 -0.07573574 -0.00000000       0.007
  -0.00000000 -0.00000000  0.11360361       0.003
  -0.01893393  0.01893393  0.13253754       0.014
  -0.03786787  0.03786787  0.15147148       0.014
  -0.05680180  0.05680180  0.17040541       0.014
   0.15147148 -0.15147148 -0.03786787       0.014
   0.13253754 -0.13253754 -0.01893393       0.014
   0.11360361 -0.11360361 -0.00000000       0.007
  -0.00000000 -0.00000000  0.15147148       0.003
  -0.01893393  0.01893393  0.17040541       0.014
  -0.03786787  0.03786787  0.18933935       0.014
   0.17040541 -0.17040541 -0.01893393       0.014
   0.15147148 -0.15147148 -0.00000000       0.007
  -0.00000000  0.00000000  0.18933935       0.003
  -0.01893393  0.01893393  0.20827328       0.014
   0.18933935 -0.18933935 -0.00000000       0.007
  -0.00000000 -0.00000000  0.22720722       0.002
  -0.00000000  0.03786787  0.07573574       0.014
  -0.01893393  0.05680180  0.09466967       0.028
  -0.03786787  0.07573574  0.11360361       0.028
  -0.05680180  0.09466967  0.13253754       0.028
   0.15147148 -0.11360361 -0.07573574       0.014
   0.00000000  0.03786787  0.11360361       0.014
  -0.01893393  0.05680180  0.13253754       0.028
  -0.03786787  0.07573574  0.15147148       0.028
   0.17040541 -0.13253754 -0.05680180       0.028
   0.15147148 -0.11360361 -0.03786787       0.028
   0.13253754 -0.09466967 -0.01893393       0.028
   0.11360361 -0.07573574 -0.00000000       0.014
  -0.00000000  0.03786787  0.15147148       0.014
  -0.01893393  0.05680180  0.17040541       0.028
   0.18933935 -0.15147148 -0.03786787       0.028
   0.17040541 -0.13253754 -0.01893393       0.028
   0.15147148 -0.11360361 -0.00000000       0.014
  -0.00000000  0.03786787  0.18933935       0.014
   0.20827328 -0.17040541 -0.01893393       0.028
   0.18933935 -0.15147148  0.00000000       0.014
   0.22720722 -0.18933935  0.00000000       0.007
  -0.00000000  0.07573574  0.15147148       0.014
   0.20827328 -0.13253754 -0.05680180       0.028
   0.18933935 -0.11360361 -0.03786787       0.014
   0.22720722 -0.15147148 -0.03786787       0.014
   0.20827328 -0.13253754 -0.01893393       0.028
   0.18933935 -0.11360361  0.00000000       0.014
   0.22720722 -0.15147148  0.00000000       0.007
   0.22720722 -0.11360361 -0.00000000       0.003
 
 k-points in reciprocal lattice and weights: AlN                                     
   0.00000000  0.00000000  0.00000000       0.001
   0.08333333  0.00000000 -0.00000000       0.005
   0.16666667  0.00000000 -0.00000000       0.005
   0.25000000  0.00000000 -0.00000000       0.005
   0.33333333 -0.00000000  0.00000000       0.005
   0.41666667 -0.00000000  0.00000000       0.005
   0.50000000  0.00000000 -0.00000000       0.002
   0.08333333  0.08333333 -0.00000000       0.003
   0.16666667  0.08333333 -0.00000000       0.014
   0.25000000  0.08333333 -0.00000000       0.014
   0.33333333  0.08333333  0.00000000       0.014
   0.41666667  0.08333333 -0.00000000       0.014
   0.50000000  0.08333333  0.00000000       0.014
  -0.41666667  0.08333333  0.00000000       0.014
  -0.33333333  0.08333333  0.00000000       0.014
  -0.25000000  0.08333333 -0.00000000       0.014
  -0.16666667  0.08333333  0.00000000       0.014
  -0.08333333  0.08333333  0.00000000       0.007
   0.16666667  0.16666667 -0.00000000       0.003
   0.25000000  0.16666667 -0.00000000       0.014
   0.33333333  0.16666667 -0.00000000       0.014
   0.41666667  0.16666667  0.00000000       0.014
   0.50000000  0.16666667  0.00000000       0.014
  -0.41666667  0.16666667 -0.00000000       0.014
  -0.33333333  0.16666667  0.00000000       0.014
  -0.25000000  0.16666667 -0.00000000       0.014
  -0.16666667  0.16666667  0.00000000       0.007
   0.25000000  0.25000000 -0.00000000       0.003
   0.33333333  0.25000000 -0.00000000       0.014
   0.41666667  0.25000000 -0.00000000       0.014
   0.50000000  0.25000000  0.00000000       0.014
  -0.41666667  0.25000000 -0.00000000       0.014
  -0.33333333  0.25000000 -0.00000000       0.014
  -0.25000000  0.25000000  0.00000000       0.007
   0.33333333  0.33333333 -0.00000000       0.003
   0.41666667  0.33333333 -0.00000000       0.014
   0.50000000  0.33333333 -0.00000000       0.014
  -0.41666667  0.33333333 -0.00000000       0.014
  -0.33333333  0.33333333 -0.00000000       0.007
   0.41666667  0.41666667 -0.00000000       0.003
   0.50000000  0.41666667 -0.00000000       0.014
  -0.41666667  0.41666667 -0.00000000       0.007
   0.50000000  0.50000000 -0.00000000       0.002
   0.25000000  0.16666667  0.08333333       0.014
   0.33333333  0.16666667  0.08333333       0.028
   0.41666667  0.16666667  0.08333333       0.028
   0.50000000  0.16666667  0.08333333       0.028
  -0.41666667  0.16666667  0.08333333       0.014
   0.33333333  0.25000000  0.08333333       0.014
   0.41666667  0.25000000  0.08333333       0.028
   0.50000000  0.25000000  0.08333333       0.028
  -0.41666667  0.25000000  0.08333333       0.028
  -0.33333333  0.25000000  0.08333333       0.028
  -0.25000000  0.25000000  0.08333333       0.028
  -0.16666667  0.25000000  0.08333333       0.014
   0.41666667  0.33333333  0.08333333       0.014
   0.50000000  0.33333333  0.08333333       0.028
  -0.41666667  0.33333333  0.08333333       0.028
  -0.33333333  0.33333333  0.08333333       0.028
  -0.25000000  0.33333333  0.08333333       0.014
   0.50000000  0.41666667  0.08333333       0.014
  -0.41666667  0.41666667  0.08333333       0.028
  -0.33333333  0.41666667  0.08333333       0.014
  -0.41666667  0.50000000  0.08333333       0.007
   0.50000000  0.33333333  0.16666667       0.014
  -0.41666667  0.33333333  0.16666667       0.028
  -0.33333333  0.33333333  0.16666667       0.014
  -0.41666667  0.41666667  0.16666667       0.014
  -0.33333333  0.41666667  0.16666667       0.028
  -0.25000000  0.41666667  0.16666667       0.014
  -0.33333333  0.50000000  0.16666667       0.007
  -0.25000000  0.50000000  0.25000000       0.003
 
 position of ions in fractional coordinates (direct lattice) 
   0.00000000  0.00000000  0.00000000
   0.25000000  0.25000000  0.25000000
 
 position of ions in cartesian coordinates  (Angst):
   0.00000000  0.00000000  0.00000000
   1.10031715  1.10031715  1.10031715
 


--------------------------------------------------------------------------------------------------------


 k-point  1 :   0.0000 0.0000 0.0000  plane waves:    1067
 k-point  2 :   0.0833 0.0000-0.0000  plane waves:    1091
 k-point  3 :   0.1667 0.0000-0.0000  plane waves:    1092
 k-point  4 :   0.2500 0.0000-0.0000  plane waves:    1089
 k-point  5 :   0.3333-0.0000 0.0000  plane waves:    1089
 k-point  6 :   0.4167-0.0000 0.0000  plane waves:    1095
 k-point  7 :   0.5000 0.0000-0.0000  plane waves:    1104
 k-point  8 :   0.0833 0.0833-0.0000  plane waves:    1086
 k-point  9 :   0.1667 0.0833-0.0000  plane waves:    1093
 k-point 10 :   0.2500 0.0833-0.0000  plane waves:    1090
 k-point 11 :   0.3333 0.0833 0.0000  plane waves:    1095
 k-point 12 :   0.4167 0.0833-0.0000  plane waves:    1097
 k-point 13 :   0.5000 0.0833 0.0000  plane waves:    1096
 k-point 14 :  -0.4167 0.0833 0.0000  plane waves:    1102
 k-point 15 :  -0.3333 0.0833 0.0000  plane waves:    1099
 k-point 16 :  -0.2500 0.0833-0.0000  plane waves:    1097
 k-point 17 :  -0.1667 0.0833 0.0000  plane waves:    1092
 k-point 18 :  -0.0833 0.0833 0.0000  plane waves:    1087
 k-point 19 :   0.1667 0.1667-0.0000  plane waves:    1094
 k-point 20 :   0.2500 0.1667-0.0000  plane waves:    1093
 k-point 21 :   0.3333 0.1667-0.0000  plane waves:    1089
 k-point 22 :   0.4167 0.1667 0.0000  plane waves:    1092
 k-point 23 :   0.5000 0.1667 0.0000  plane waves:    1095
 k-point 24 :  -0.4167 0.1667-0.0000  plane waves:    1092
 k-point 25 :  -0.3333 0.1667 0.0000  plane waves:    1095
 k-point 26 :  -0.2500 0.1667-0.0000  plane waves:    1093
 k-point 27 :  -0.1667 0.1667 0.0000  plane waves:    1089
 k-point 28 :   0.2500 0.2500-0.0000  plane waves:    1094
 k-point 29 :   0.3333 0.2500-0.0000  plane waves:    1088
 k-point 30 :   0.4167 0.2500-0.0000  plane waves:    1089
 k-point 31 :   0.5000 0.2500 0.0000  plane waves:    1096
 k-point 32 :  -0.4167 0.2500-0.0000  plane waves:    1105
 k-point 33 :  -0.3333 0.2500-0.0000  plane waves:    1105
 k-point 34 :  -0.2500 0.2500 0.0000  plane waves:    1097
 k-point 35 :   0.3333 0.3333-0.0000  plane waves:    1078
 k-point 36 :   0.4167 0.3333-0.0000  plane waves:    1086
 k-point 37 :   0.5000 0.3333-0.0000  plane waves:    1100
 k-point 38 :  -0.4167 0.3333-0.0000  plane waves:    1105
 k-point 39 :  -0.3333 0.3333-0.0000  plane waves:    1113
 k-point 40 :   0.4167 0.4167-0.0000  plane waves:    1086
 k-point 41 :   0.5000 0.4167-0.0000  plane waves:    1096
 k-point 42 :  -0.4167 0.4167-0.0000  plane waves:    1106
 k-point 43 :   0.5000 0.5000-0.0000  plane waves:    1106
 k-point 44 :   0.2500 0.1667 0.0833  plane waves:    1094
 k-point 45 :   0.3333 0.1667 0.0833  plane waves:    1093
 k-point 46 :   0.4167 0.1667 0.0833  plane waves:    1089
 k-point 47 :   0.5000 0.1667 0.0833  plane waves:    1098
 k-point 48 :  -0.4167 0.1667 0.0833  plane waves:    1100
 k-point 49 :   0.3333 0.2500 0.0833  plane waves:    1093
 k-point 50 :   0.4167 0.2500 0.0833  plane waves:    1089
 k-point 51 :   0.5000 0.2500 0.0833  plane waves:    1090
 k-point 52 :  -0.4167 0.2500 0.0833  plane waves:    1099
 k-point 53 :  -0.3333 0.2500 0.0833  plane waves:    1095
 k-point 54 :  -0.2500 0.2500 0.0833  plane waves:    1098
 k-point 55 :  -0.1667 0.2500 0.0833  plane waves:    1100
 k-point 56 :   0.4167 0.3333 0.0833  plane waves:    1079
 k-point 57 :   0.5000 0.3333 0.0833  plane waves:    1088
 k-point 58 :  -0.4167 0.3333 0.0833  plane waves:    1097
 k-point 59 :  -0.3333 0.3333 0.0833  plane waves:    1102
 k-point 60 :  -0.2500 0.3333 0.0833  plane waves:    1100
 k-point 61 :   0.5000 0.4167 0.0833  plane waves:    1090
 k-point 62 :  -0.4167 0.4167 0.0833  plane waves:    1100
 k-point 63 :  -0.3333 0.4167 0.0833  plane waves:    1100
 k-point 64 :  -0.4167 0.5000 0.0833  plane waves:    1110
 k-point 65 :   0.5000 0.3333 0.1667  plane waves:    1094
 k-point 66 :  -0.4167 0.3333 0.1667  plane waves:    1095
 k-point 67 :  -0.3333 0.3333 0.1667  plane waves:    1098
 k-point 68 :  -0.4167 0.4167 0.1667  plane waves:    1099
 k-point 69 :  -0.3333 0.4167 0.1667  plane waves:    1100
 k-point 70 :  -0.2500 0.4167 0.1667  plane waves:    1102
 k-point 71 :  -0.3333 0.5000 0.1667  plane waves:    1098
 k-point 72 :  -0.2500 0.5000 0.2500  plane waves:    1084

 maximum and minimum number of plane-waves per node :       231      208

 maximum number of plane-waves:      1113
 maximum index in each direction: 
   IXMAX=    7   IYMAX=    7   IZMAX=    7
   IXMIN=   -7   IYMIN=   -7   IZMIN=   -7


 parallel 3D FFT for wavefunctions:
    minimum data exchange during FFTs selected (reduces bandwidth)
 parallel 3D FFT for charge:
    minimum data exchange during FFTs selected (reduces bandwidth)


 total amount of memory used by VASP MPI-rank0    37984. kBytes
=======================================================================

   base      :      30000. kBytes
   nonl-proj :       2090. kBytes
   fftplans  :       3356. kBytes
   grid      :       1457. kBytes
   one-center:          3. kBytes
   wavefun   :       1078. kBytes
 
     INWAV:  cpu time    0.0000: real time    0.0000
 Broyden mixing: mesh for mixing (old mesh)
   NGX = 15   NGY = 15   NGZ = 15
  (NGX  = 60   NGY  = 60   NGZ  = 60)
  gives a total of   3375 points

 initial charge density was supplied:
 charge density of overlapping atoms calculated
 number of electron       8.0000000 magnetization 
 keeping initial charge density in first step


--------------------------------------------------------------------------------------------------------


 Maximum index for augmentation-charges        38067 (set IRDMAX)


--------------------------------------------------------------------------------------------------------


 First call to EWALD:  gamma=   0.639
 Maximum number of real-space cells 3x 3x 3
 Maximum number of reciprocal cells 3x 3x 3

    FEWALD:  cpu time    0.0008: real time    0.0008


--------------------------------------- Iteration      1(   1)  ---------------------------------------


    POTLOK:  cpu time    0.0078: real time    0.0078
    SETDIJ:  cpu time    0.0446: real time    0.0446
     EDDAV:  cpu time    0.1134: real time    0.1134
       DOS:  cpu time    0.0004: real time    0.0004
    --------------------------------------------
      LOOP:  cpu time    0.1663: real time    0.1663

 eigenvalue-minimisations  :  1152
 total energy-change (2. order) : 0.2329117E+02  (-0.5072477E+03)
 number of electron       8.0000000 magnetization 
 augmentation part        8.0000000 magnetization 

 Free energy of the ion-electron system (eV)
  ---------------------------------------------------
  alpha Z        PSCENC =         7.66789344
  Ewald energy   TEWEN  =      -294.36360076
  -Hartree energ DENC   =       -59.81596692
  -exchange      EXHF   =         0.00000000
  -V(xc)+E(xc)   XCENC  =        -6.13555598
  PAW double counting   =       271.13288874     -240.36933646
  entropy T*S    EENTRO =        -0.00006742
  eigenvalues    EBANDS =        27.09059336
  atomic energy  EATOM  =       318.08432528
  Solvation  Ediel_sol  =         0.00000000
  ---------------------------------------------------
  free energy    TOTEN  =        23.29117328 eV

  energy without entropy =       23.29124070  energy(sigma->0) =       23.29120699


--------------------------------------------------------------------------------------------------------




--------------------------------------- Iteration      1(   2)  ---------------------------------------


     EDDAV:  cpu time    0.1508: real time    0.1508
       DOS:  cpu time    0.0001: real time    0.0001
    --------------------------------------------
      LOOP:  cpu time    0.1509: real time    0.1509

 eigenvalue-minimisations  :  1544
 total energy-change (2. order) :-0.3930037E+02  (-0.3864224E+02)
 number of electron       8.0000000 magnetization 
 augmentation part        8.0000000 magnetization 

 Free energy of the ion-electron system (eV)
  ---------------------------------------------------
  alpha Z        PSCENC =         7.66789344
  Ewald energy   TEWEN  =      -294.36360076
  -Hartree energ DENC   =       -59.81596692
  -exchange      EXHF   =         0.00000000
  -V(xc)+E(xc)   XCENC  =        -6.13555598
  PAW double counting   =       271.13288874     -240.36933646
  entropy T*S    EENTRO =        -0.00000000
  eigenvalues    EBANDS =       -12.20983977
  atomic energy  EATOM  =       318.08432528
  Solvation  Ediel_sol  =         0.00000000
  ---------------------------------------------------
  free energy    TOTEN  =       -16.00919244 eV

  energy without entropy =      -16.00919244  energy(sigma->0) =      -16.00919244


--------------------------------------------------------------------------------------------------------




--------------------------------------- Iteration      1(   3)  ---------------------------------------


     EDDAV:  cpu time    0.1320: real time    0.1320
       DOS:  cpu time    0.0001: real time    0.0001
    --------------------------------------------
      LOOP:  cpu time    0.1321: real time    0.1321

 eigenvalue-minimisations  :  1360
 total energy-change (2. order) :-0.1182305E+01  (-0.1182305E+01)
 number of electron       8.0000000 magnetization 
 augmentation part        8.0000000 magnetization 

 Free energy of the ion-electron system (eV)
  ---------------------------------------------------
  alpha Z        PSCENC =         7.66789344
  Ewald energy   TEWEN  =      -294.36360076
  -Hartree energ DENC   =       -59.81596692
  -exchange      EXHF   =         0.00000000
  -V(xc)+E(xc)   XCENC  =        -6.13555598
  PAW double counting   =       271.13288874     -240.36933646
  entropy T*S    EENTRO =         0.00000000
  eigenvalues    EBANDS =       -13.39214497
  atomic energy  EATOM  =       318.08432528
  Solvation  Ediel_sol  =         0.00000000
  ---------------------------------------------------
  free energy    TOTEN  =       -17.19149764 eV

  energy without entropy =      -17.19149764  energy(sigma->0) =      -17.19149764


--------------------------------------------------------------------------------------------------------




--------------------------------------- Iteration      1(   4)  ---------------------------------------


     EDDAV:  cpu time    0.1684: real time    0.1684
       DOS:  cpu time    0.0001: real time    0.0001
    --------------------------------------------
      LOOP:  cpu time    0.1685: real time    0.1685

 eigenvalue-minimisations  :  1776
 total energy-change (2. order) :-0.4394371E-02  (-0.4394371E-02)
 number of electron       8.0000000 magnetization 
 augmentation part        8.0000000 magnetization 

 Free energy of the ion-electron system (eV)
  ---------------------------------------------------
  alpha Z        PSCENC =         7.66789344
  Ewald energy   TEWEN  =      -294.36360076
  -Hartree energ DENC   =       -59.81596692
  -exchange      EXHF   =         0.00000000
  -V(xc)+E(xc)   XCENC  =        -6.13555598
  PAW double counting   =       271.13288874     -240.36933646
  entropy T*S    EENTRO =         0.00000000
  eigenvalues    EBANDS =       -13.39653934
  atomic energy  EATOM  =       318.08432528
  Solvation  Ediel_sol  =         0.00000000
  ---------------------------------------------------
  free energy    TOTEN  =       -17.19589201 eV

  energy without entropy =      -17.19589201  energy(sigma->0) =      -17.19589201


--------------------------------------------------------------------------------------------------------




--------------------------------------- Iteration      1(   5)  ---------------------------------------


     EDDAV:  cpu time    0.1358: real time    0.1358
       DOS:  cpu time    0.0001: real time    0.0001
    --------------------------------------------
      LOOP:  cpu time    0.1359: real time    0.1359

 eigenvalue-minimisations  :  1400
 total energy-change (2. order) :-0.5894550E-05  (-0.5894550E-05)
 number of electron       8.0000000 magnetization 
 augmentation part        8.0000000 magnetization 

 Free energy of the ion-electron system (eV)
  ---------------------------------------------------
  alpha Z        PSCENC =         7.66789344
  Ewald energy   TEWEN  =      -294.36360076
  -Hartree energ DENC   =       -59.81596692
  -exchange      EXHF   =         0.00000000
  -V(xc)+E(xc)   XCENC  =        -6.13555598
  PAW double counting   =       271.13288874     -240.36933646
  entropy T*S    EENTRO =         0.00000000
  eigenvalues    EBANDS =       -13.39654524
  atomic energy  EATOM  =       318.08432528
  Solvation  Ediel_sol  =         0.00000000
  ---------------------------------------------------
  free energy    TOTEN  =       -17.19589790 eV

  energy without entropy =      -17.19589790  energy(sigma->0) =      -17.19589790


--------------------------------------------------------------------------------------------------------




--------------------------------------- Iteration      1(   6)  ---------------------------------------


     EDDAV:  cpu time    0.1702: real time    0.1702
       DOS:  cpu time    0.0001: real time    0.0001
    --------------------------------------------
      LOOP:  cpu time    0.1703: real time    0.1702

 eigenvalue-minimisations  :  1800
 total energy-change (2. order) :-0.1324167E-07  (-0.1324166E-07)
 number of electron       8.0000000 magnetization 
 augmentation part        8.0000000 magnetization 

 Free energy of the ion-electron system (eV)
  ---------------------------------------------------
  alpha Z        PSCENC =         7.66789344
  Ewald energy   TEWEN  =      -294.36360076
  -Hartree energ DENC   =       -59.81596692
  -exchange      EXHF   =         0.00000000
  -V(xc)+E(xc)   XCENC  =        -6.13555598
  PAW double counting   =       271.13288874     -240.36933646
  entropy T*S    EENTRO =         0.00000000
  eigenvalues    EBANDS =       -13.39654525
  atomic energy  EATOM  =       318.08432528
  Solvation  Ediel_sol  =         0.00000000
  ---------------------------------------------------
  free energy    TOTEN  =       -17.19589792 eV

  energy without entropy =      -17.19589792  energy(sigma->0) =      -17.19589792


--------------------------------------------------------------------------------------------------------




--------------------------------------- Iteration      1(   7)  ---------------------------------------


     EDDAV:  cpu time    0.1440: real time    0.1440
       DOS:  cpu time    0.0001: real time    0.0001
    --------------------------------------------
      LOOP:  cpu time    0.1441: real time    0.1441

 eigenvalue-minimisations  :  1496
 total energy-change (2. order) :-0.2017941E-10  (-0.2016167E-10)
 number of electron       8.0000000 magnetization 
 augmentation part        8.0000000 magnetization 

 Free energy of the ion-electron system (eV)
  ---------------------------------------------------
  alpha Z        PSCENC =         7.66789344
  Ewald energy   TEWEN  =      -294.36360076
  -Hartree energ DENC   =       -59.81596692
  -exchange      EXHF   =         0.00000000
  -V(xc)+E(xc)   XCENC  =        -6.13555598
  PAW double counting   =       271.13288874     -240.36933646
  entropy T*S    EENTRO =         0.00000000
  eigenvalues    EBANDS =       -13.39654525
  atomic energy  EATOM  =       318.08432528
  Solvation  Ediel_sol  =         0.00000000
  ---------------------------------------------------
  free energy    TOTEN  =       -17.19589792 eV

  energy without entropy =      -17.19589792  energy(sigma->0) =      -17.19589792


--------------------------------------------------------------------------------------------------------




--------------------------------------- Iteration      1(   8)  ---------------------------------------


     EDDAV:  cpu time    0.1388: real time    0.1388
       DOS:  cpu time    0.0001: real time    0.0001
    CHARGE:  cpu time    0.0218: real time    0.0218
    MIXING:  cpu time    0.0003: real time    0.0003
    --------------------------------------------
      LOOP:  cpu time    0.1610: real time    0.1610

 eigenvalue-minimisations  :  1408
 total energy-change (2. order) :-0.5684342E-13  (-0.2126601E-13)
 number of electron       8.0000000 magnetization 
 augmentation part        0.3198922 magnetization 

 Broyden mixing:
  rms(total) = 0.85070E+00    rms(broyden)= 0.85069E+00
  rms(prec ) = 0.33147E+01
  weight for this iteration     100.00

 Free energy of the ion-electron system (eV)
  ---------------------------------------------------
  alpha Z        PSCENC =         7.66789344
  Ewald energy   TEWEN  =      -294.36360076
  -Hartree energ DENC   =       -59.81596692
  -exchange      EXHF   =         0.00000000
  -V(xc)+E(xc)   XCENC  =        -6.13555598
  PAW double counting   =       271.13288874     -240.36933646
  entropy T*S    EENTRO =         0.00000000
  eigenvalues    EBANDS =       -13.39654525
  atomic energy  EATOM  =       318.08432528
  Solvation  Ediel_sol  =         0.00000000
  ---------------------------------------------------
  free energy    TOTEN  =       -17.19589792 eV

  energy without entropy =      -17.19589792  energy(sigma->0) =      -17.19589792


--------------------------------------------------------------------------------------------------------




--------------------------------------- Iteration      1(   9)  ---------------------------------------


    POTLOK:  cpu time    0.0058: real time    0.0058
    SETDIJ:  cpu time    0.0433: real time    0.0433
     EDDAV:  cpu time    0.1342: real time    0.1342
       DOS:  cpu time    0.0001: real time    0.0001
    CHARGE:  cpu time    0.0208: real time    0.0208
    MIXING:  cpu time    0.0003: real time    0.0003
    --------------------------------------------
      LOOP:  cpu time    0.2045: real time    0.2045

 eigenvalue-minimisations  :  1408
 total energy-change (2. order) : 0.1864897E+01  (-0.4401717E+00)
 number of electron       8.0000000 magnetization 
 augmentation part        0.2550221 magnetization 

 Broyden mixing:
  rms(total) = 0.43074E+00    rms(broyden)= 0.43074E+00
  rms(prec ) = 0.15967E+01
  weight for this iteration     100.00

 eigenvalues of (default mixing * dielectric matrix)
  average eigenvalue GAMMA=   1.6656
  1.6656

 Free energy of the ion-electron system (eV)
  ---------------------------------------------------
  alpha Z        PSCENC =         7.66789344
  Ewald energy   TEWEN  =      -294.36360076
  -Hartree energ DENC   =       -68.77782164
  -exchange      EXHF   =         0.00000000
  -V(xc)+E(xc)   XCENC  =        -5.45687037
  PAW double counting   =       339.12830887     -308.46337696
  entropy T*S    EENTRO =         0.00000000
  eigenvalues    EBANDS =        -3.14985834
  atomic energy  EATOM  =       318.08432528
  Solvation  Ediel_sol  =         0.00000000
  ---------------------------------------------------
  free energy    TOTEN  =       -15.33100048 eV

  energy without entropy =      -15.33100048  energy(sigma->0) =      -15.33100048


--------------------------------------------------------------------------------------------------------




--------------------------------------- Iteration      1(  10)  ---------------------------------------


    POTLOK:  cpu time    0.0058: real time    0.0058
    SETDIJ:  cpu time    0.0429: real time    0.0429
     EDDAV:  cpu time    0.1453: real time    0.1453
       DOS:  cpu time    0.0001: real time    0.0001
    CHARGE:  cpu time    0.0207: real time    0.0207
    MIXING:  cpu time    0.0003: real time    0.0003
    --------------------------------------------
      LOOP:  cpu time    0.2151: real time    0.2151

 eigenvalue-minimisations  :  1544
 total energy-change (2. order) : 0.4700258E+00  (-0.3071201E+00)
 number of electron       8.0000000 magnetization 
 augmentation part        0.2038545 magnetization 

 Broyden mixing:
  rms(total) = 0.24959E+00    rms(broyden)= 0.24959E+00
  rms(prec ) = 0.48791E+00
  weight for this iteration     100.00

 eigenvalues of (default mixing * dielectric matrix)
  average eigenvalue GAMMA=   3.0259
  1.8733  4.1785

 Free energy of the ion-electron system (eV)
  ---------------------------------------------------
  alpha Z        PSCENC =         7.66789344
  Ewald energy   TEWEN  =      -294.36360076
  -Hartree energ DENC   =       -76.86707521
  -exchange      EXHF   =         0.00000000
  -V(xc)+E(xc)   XCENC  =        -4.83527013
  PAW double counting   =       457.90953966     -427.34668219
  entropy T*S    EENTRO =         0.00000000
  eigenvalues    EBANDS =         4.88989523
  atomic energy  EATOM  =       318.08432528
  Solvation  Ediel_sol  =         0.00000000
  ---------------------------------------------------
  free energy    TOTEN  =       -14.86097468 eV

  energy without entropy =      -14.86097468  energy(sigma->0) =      -14.86097468


--------------------------------------------------------------------------------------------------------




--------------------------------------- Iteration      1(  11)  ---------------------------------------


    POTLOK:  cpu time    0.0058: real time    0.0058
    SETDIJ:  cpu time    0.0429: real time    0.0429
     EDDAV:  cpu time    0.1229: real time    0.1229
       DOS:  cpu time    0.0001: real time    0.0001
    CHARGE:  cpu time    0.0208: real time    0.0208
    MIXING:  cpu time    0.0003: real time    0.0003
    --------------------------------------------
      LOOP:  cpu time    0.1928: real time    0.1928

 eigenvalue-minimisations  :  1264
 total energy-change (2. order) : 0.6476023E-02  (-0.4415682E-02)
 number of electron       8.0000000 magnetization 
 augmentation part        0.2079129 magnetization 

 Broyden mixing:
  rms(total) = 0.31411E-01    rms(broyden)= 0.31411E-01
  rms(prec ) = 0.11070E+00
  weight for this iteration     100.00

 eigenvalues of (default mixing * dielectric matrix)
  average eigenvalue GAMMA=   2.5268
  0.9772  1.7873  4.8160

 Free energy of the ion-electron system (eV)
  ---------------------------------------------------
  alpha Z        PSCENC =         7.66789344
  Ewald energy   TEWEN  =      -294.36360076
  -Hartree energ DENC   =       -77.28746915
  -exchange      EXHF   =         0.00000000
  -V(xc)+E(xc)   XCENC  =        -4.74256543
  PAW double counting   =       685.14974260     -654.65449994
  entropy T*S    EENTRO =         0.00000000
  eigenvalues    EBANDS =         5.29167529
  atomic energy  EATOM  =       318.08432528
  Solvation  Ediel_sol  =         0.00000000
  ---------------------------------------------------
  free energy    TOTEN  =       -14.85449866 eV

  energy without entropy =      -14.85449866  energy(sigma->0) =      -14.85449866


--------------------------------------------------------------------------------------------------------




--------------------------------------- Iteration      1(  12)  ---------------------------------------


    POTLOK:  cpu time    0.0057: real time    0.0057
    SETDIJ:  cpu time    0.0429: real time    0.0429
     EDDAV:  cpu time    0.1296: real time    0.1296
       DOS:  cpu time    0.0001: real time    0.0001
    CHARGE:  cpu time    0.0208: real time    0.0208
    MIXING:  cpu time    0.0003: real time    0.0003
    --------------------------------------------
      LOOP:  cpu time    0.1994: real time    0.1994

 eigenvalue-minimisations  :  1344
 total energy-change (2. order) : 0.1294295E-02  (-0.8251955E-03)
 number of electron       8.0000000 magnetization 
 augmentation part        0.2055229 magnetization 

 Broyden mixing:
  rms(total) = 0.14507E-01    rms(broyden)= 0.14507E-01
  rms(prec ) = 0.19918E-01
  weight for this iteration     100.00

 eigenvalues of (default mixing * dielectric matrix)
  average eigenvalue GAMMA=   2.0387
  4.7598  1.7872  0.8648  0.7431

 Free energy of the ion-electron system (eV)
  ---------------------------------------------------
  alpha Z        PSCENC =         7.66789344
  Ewald energy   TEWEN  =      -294.36360076
  -Hartree energ DENC   =       -77.93198226
  -exchange      EXHF   =         0.00000000
  -V(xc)+E(xc)   XCENC  =        -4.68177130
  PAW double counting   =       727.77423411     -697.29614608
  entropy T*S    EENTRO =         0.00000000
  eigenvalues    EBANDS =         5.89384321
  atomic energy  EATOM  =       318.08432528
  Solvation  Ediel_sol  =         0.00000000
  ---------------------------------------------------
  free energy    TOTEN  =       -14.85320436 eV

  energy without entropy =      -14.85320436  energy(sigma->0) =      -14.85320436


--------------------------------------------------------------------------------------------------------




--------------------------------------- Iteration      1(  13)  ---------------------------------------


    POTLOK:  cpu time    0.0058: real time    0.0058
    SETDIJ:  cpu time    0.0430: real time    0.0430
     EDDAV:  cpu time    0.1287: real time    0.1287
       DOS:  cpu time    0.0001: real time    0.0001
    CHARGE:  cpu time    0.0208: real time    0.0208
    MIXING:  cpu time    0.0003: real time    0.0003
    --------------------------------------------
      LOOP:  cpu time    0.1987: real time    0.1987

 eigenvalue-minimisations  :  1336
 total energy-change (2. order) :-0.3597622E-05  (-0.4051276E-04)
 number of electron       8.0000000 magnetization 
 augmentation part        0.2050628 magnetization 

 Broyden mixing:
  rms(total) = 0.10178E-01    rms(broyden)= 0.10178E-01
  rms(prec ) = 0.13294E-01
  weight for this iteration     100.00

 eigenvalues of (default mixing * dielectric matrix)
  average eigenvalue GAMMA=   1.7070
  4.7643  1.7895  0.9234  0.5290  0.5290

 Free energy of the ion-electron system (eV)
  ---------------------------------------------------
  alpha Z        PSCENC =         7.66789344
  Ewald energy   TEWEN  =      -294.36360076
  -Hartree energ DENC   =       -77.96027364
  -exchange      EXHF   =         0.00000000
  -V(xc)+E(xc)   XCENC  =        -4.68062739
  PAW double counting   =       720.13550592     -689.65743399
  entropy T*S    EENTRO =         0.00000000
  eigenvalues    EBANDS =         5.92100318
  atomic energy  EATOM  =       318.08432528
  Solvation  Ediel_sol  =         0.00000000
  ---------------------------------------------------
  free energy    TOTEN  =       -14.85320796 eV

  energy without entropy =      -14.85320796  energy(sigma->0) =      -14.85320796


--------------------------------------------------------------------------------------------------------




--------------------------------------- Iteration      1(  14)  ---------------------------------------


    POTLOK:  cpu time    0.0058: real time    0.0058
    SETDIJ:  cpu time    0.0430: real time    0.0430
     EDDAV:  cpu time    0.1190: real time    0.1190
       DOS:  cpu time    0.0001: real time    0.0001
    CHARGE:  cpu time    0.0207: real time    0.0207
    MIXING:  cpu time    0.0003: real time    0.0003
    --------------------------------------------
      LOOP:  cpu time    0.1889: real time    0.1889

 eigenvalue-minimisations  :  1216
 total energy-change (2. order) :-0.8604138E-04  (-0.1148340E-04)
 number of electron       8.0000000 magnetization 
 augmentation part        0.2053141 magnetization 

 Broyden mixing:
  rms(total) = 0.73434E-02    rms(broyden)= 0.73434E-02
  rms(prec ) = 0.11477E-01
  weight for this iteration     100.00

 eigenvalues of (default mixing * dielectric matrix)
  average eigenvalue GAMMA=   2.4967
  5.3162  4.7690  1.7726  1.0071  1.0577  1.0577

 Free energy of the ion-electron system (eV)
  ---------------------------------------------------
  alpha Z        PSCENC =         7.66789344
  Ewald energy   TEWEN  =      -294.36360076
  -Hartree energ DENC   =       -77.94941752
  -exchange      EXHF   =         0.00000000
  -V(xc)+E(xc)   XCENC  =        -4.67964095
  PAW double counting   =       714.93758643     -684.46216211
  entropy T*S    EENTRO =         0.00000000
  eigenvalues    EBANDS =         5.91172218
  atomic energy  EATOM  =       318.08432528
  Solvation  Ediel_sol  =         0.00000000
  ---------------------------------------------------
  free energy    TOTEN  =       -14.85329400 eV

  energy without entropy =      -14.85329400  energy(sigma->0) =      -14.85329400


--------------------------------------------------------------------------------------------------------




--------------------------------------- Iteration      1(  15)  ---------------------------------------


    POTLOK:  cpu time    0.0058: real time    0.0058
    SETDIJ:  cpu time    0.0429: real time    0.0429
     EDDAV:  cpu time    0.1456: real time    0.1456
       DOS:  cpu time    0.0001: real time    0.0001
    CHARGE:  cpu time    0.0207: real time    0.0207
    MIXING:  cpu time    0.0004: real time    0.0004
    --------------------------------------------
      LOOP:  cpu time    0.2155: real time    0.2155

 eigenvalue-minimisations  :  1544
 total energy-change (2. order) : 0.9527334E-05  (-0.9121875E-05)
 number of electron       8.0000000 magnetization 
 augmentation part        0.2050534 magnetization 

 Broyden mixing:
  rms(total) = 0.45588E-03    rms(broyden)= 0.45587E-03
  rms(prec ) = 0.74337E-03
  weight for this iteration     100.00

 eigenvalues of (default mixing * dielectric matrix)
  average eigenvalue GAMMA=   2.4093
  5.2642  4.8248  1.7845  1.7845  1.0156  1.0958  1.0958

 Free energy of the ion-electron system (eV)
  ---------------------------------------------------
  alpha Z        PSCENC =         7.66789344
  Ewald energy   TEWEN  =      -294.36360076
  -Hartree energ DENC   =       -77.98729162
  -exchange      EXHF   =         0.00000000
  -V(xc)+E(xc)   XCENC  =        -4.67714967
  PAW double counting   =       703.58033245     -673.10605630
  entropy T*S    EENTRO =         0.00000000
  eigenvalues    EBANDS =         5.94826270
  atomic energy  EATOM  =       318.08432528
  Solvation  Ediel_sol  =         0.00000000
  ---------------------------------------------------
  free energy    TOTEN  =       -14.85328448 eV

  energy without entropy =      -14.85328448  energy(sigma->0) =      -14.85328448


--------------------------------------------------------------------------------------------------------




--------------------------------------- Iteration      1(  16)  ---------------------------------------


    POTLOK:  cpu time    0.0058: real time    0.0058
    SETDIJ:  cpu time    0.0429: real time    0.0429
     EDDAV:  cpu time    0.1366: real time    0.1366
       DOS:  cpu time    0.0001: real time    0.0001
    CHARGE:  cpu time    0.0208: real time    0.0208
    MIXING:  cpu time    0.0004: real time    0.0004
    --------------------------------------------
      LOOP:  cpu time    0.2065: real time    0.2065

 eigenvalue-minimisations  :  1424
 total energy-change (2. order) :-0.9577724E-07  (-0.1511346E-06)
 number of electron       8.0000000 magnetization 
 augmentation part        0.2050353 magnetization 

 Broyden mixing:
  rms(total) = 0.35266E-03    rms(broyden)= 0.35266E-03
  rms(prec ) = 0.38657E-03
  weight for this iteration     100.00

 eigenvalues of (default mixing * dielectric matrix)
  average eigenvalue GAMMA=   2.5646
  5.1948  4.7048  4.7048  1.7738  1.1522  0.9681  1.0091  1.0091

 Free energy of the ion-electron system (eV)
  ---------------------------------------------------
  alpha Z        PSCENC =         7.66789344
  Ewald energy   TEWEN  =      -294.36360076
  -Hartree energ DENC   =       -77.98939702
  -exchange      EXHF   =         0.00000000
  -V(xc)+E(xc)   XCENC  =        -4.67703288
  PAW double counting   =       703.56033370     -673.08599832
  entropy T*S    EENTRO =         0.00000000
  eigenvalues    EBANDS =         5.95019199
  atomic energy  EATOM  =       318.08432528
  Solvation  Ediel_sol  =         0.00000000
  ---------------------------------------------------
  free energy    TOTEN  =       -14.85328457 eV

  energy without entropy =      -14.85328457  energy(sigma->0) =      -14.85328457


--------------------------------------------------------------------------------------------------------




--------------------------------------- Iteration      1(  17)  ---------------------------------------


    POTLOK:  cpu time    0.0058: real time    0.0058
    SETDIJ:  cpu time    0.0429: real time    0.0429
     EDDAV:  cpu time    0.1196: real time    0.1196
       DOS:  cpu time    0.0001: real time    0.0001
    CHARGE:  cpu time    0.0208: real time    0.0208
    MIXING:  cpu time    0.0004: real time    0.0004
    --------------------------------------------
      LOOP:  cpu time    0.1896: real time    0.1896

 eigenvalue-minimisations  :  1192
 total energy-change (2. order) :-0.1402080E-06  (-0.2603748E-07)
 number of electron       8.0000000 magnetization 
 augmentation part        0.2050206 magnetization 

 Broyden mixing:
  rms(total) = 0.17547E-03    rms(broyden)= 0.17546E-03
  rms(prec ) = 0.49832E-03
  weight for this iteration     100.00

 eigenvalues of (default mixing * dielectric matrix)
  average eigenvalue GAMMA=   2.4727
  5.4751  4.9076  4.9076  1.7762  1.0634  1.0634  1.1213  0.9700  0.9700

 Free energy of the ion-electron system (eV)
  ---------------------------------------------------
  alpha Z        PSCENC =         7.66789344
  Ewald energy   TEWEN  =      -294.36360076
  -Hartree energ DENC   =       -77.99159500
  -exchange      EXHF   =         0.00000000
  -V(xc)+E(xc)   XCENC  =        -4.67686681
  PAW double counting   =       704.21062684     -673.73617625
  entropy T*S    EENTRO =         0.00000000
  eigenvalues    EBANDS =         5.95210855
  atomic energy  EATOM  =       318.08432528
  Solvation  Ediel_sol  =         0.00000000
  ---------------------------------------------------
  free energy    TOTEN  =       -14.85328471 eV

  energy without entropy =      -14.85328471  energy(sigma->0) =      -14.85328471


--------------------------------------------------------------------------------------------------------




--------------------------------------- Iteration      1(  18)  ---------------------------------------


    POTLOK:  cpu time    0.0058: real time    0.0057
    SETDIJ:  cpu time    0.0430: real time    0.0430
     EDDAV:  cpu time    0.0812: real time    0.0812
       DOS:  cpu time    0.0001: real time    0.0001
    --------------------------------------------
      LOOP:  cpu time    0.1301: real time    0.1301

 eigenvalue-minimisations  :   688
 total energy-change (2. order) : 0.4178651E-07  (-0.2233797E-07)
 number of electron       8.0000000 magnetization 
 augmentation part        0.2050206 magnetization 

 Free energy of the ion-electron system (eV)
  ---------------------------------------------------
  alpha Z        PSCENC =         7.66789344
  Ewald energy   TEWEN  =      -294.36360076
  -Hartree energ DENC   =       -77.98947449
  -exchange      EXHF   =         0.00000000
  -V(xc)+E(xc)   XCENC  =        -4.67702248
  PAW double counting   =       704.17150828     -673.69702217
  entropy T*S    EENTRO =         0.00000000
  eigenvalues    EBANDS =         5.95010823
  atomic energy  EATOM  =       318.08432528
  Solvation  Ediel_sol  =         0.00000000
  ---------------------------------------------------
  free energy    TOTEN  =       -14.85328467 eV

  energy without entropy =      -14.85328467  energy(sigma->0) =      -14.85328467


--------------------------------------------------------------------------------------------------------




 average (electrostatic) potential at core
  the test charge radii are     1.0406  0.7089
  (the norm of the test charge is              1.0000)
       1 -71.9296       2 -60.1691
 
 
 
 E-fermi :   6.8919     XC(G=0): -10.8353     alpha+bet :-15.5925


 k-point     1 :       0.0000    0.0000    0.0000
  band No.  band energies     occupation 
      1      -9.0932      2.00000
      2       5.7568      2.00000
      3       5.7568      2.00000
      4       5.7568      2.00000
      5       9.7551      0.00000
      6      18.0925      0.00000
      7      18.0925      0.00000
      8      18.0925      0.00000

 k-point     2 :       0.0833    0.0000   -0.0000
  band No.  band energies     occupation 
      1      -8.9939      2.00000
      2       5.1664      2.00000
      3       5.7206      2.00000
      4       5.7206      2.00000
      5      10.2458      0.00000
      6      17.8146      0.00000
      7      18.1917      0.00000
      8      18.1917      0.00000

 k-point     3 :       0.1667    0.0000   -0.0000
  band No.  band energies     occupation 
      1      -8.7065      2.00000
      2       3.9148      2.00000
      3       5.6251      2.00000
      4       5.6251      2.00000
      5      11.1835      0.00000
      6      17.1874      0.00000
      7      18.2637      0.00000
      8      18.2637      0.00000

 k-point     4 :       0.2500    0.0000   -0.0000
  band No.  band energies     occupation 
      1      -8.2668      2.00000
      2       2.5302      2.00000
      3       5.5023      2.00000
      4       5.5023      2.00000
      5      12.0211      0.00000
      6      16.5226      0.00000
      7      17.8964      0.00000
      8      17.8964      0.00000

 k-point     5 :       0.3333   -0.0000    0.0000
  band No.  band energies     occupation 
      1      -7.7509      2.00000
      2       1.2681      2.00000
      3       5.3874      2.00000
      4       5.3874      2.00000
      5      12.5709      0.00000
      6      15.9740      0.00000
      7      17.3280      0.00000
      8      17.3280      0.00000

 k-point     6 :       0.4167   -0.0000    0.0000
  band No.  band energies     occupation 
      1      -7.2995      2.00000
      2       0.3451      2.00000
      3       5.3076      2.00000
      4       5.3076      2.00000
      5      12.8489      0.00000
      6      15.6035      0.00000
      7      16.9088      0.00000
      8      16.9088      0.00000

 k-point     7 :       0.5000    0.0000   -0.0000
  band No.  band energies     occupation 
      1      -7.1115      2.00000
      2      -0.0037      2.00000
      3       5.2793      2.00000
      4       5.2793      2.00000
      5      12.9313      0.00000
      6      15.4691      0.00000
      7      16.7602      0.00000
      8      16.7602      0.00000

 k-point     8 :       0.0833    0.0833   -0.0000
  band No.  band energies     occupation 
      1      -8.9609      2.00000
      2       5.1683      2.00000
      3       5.6133      2.00000
      4       5.6133      2.00000
      5      10.3977      0.00000
      6      17.6462      0.00000
      7      18.2865      0.00000
      8      18.2865      0.00000

 k-point     9 :       0.1667    0.0833   -0.0000
  band No.  band energies     occupation 
      1      -8.7363      2.00000
      2       4.2376      2.00000
      3       5.4602      2.00000
      4       5.5472      2.00000
      5      11.1405      0.00000
      6      17.1655      0.00000
      7      18.2504      0.00000
      8      18.4619      0.00000

 k-point    10 :       0.2500    0.0833   -0.0000
  band No.  band energies     occupation 
      1      -8.3468      2.00000
      2       2.9623      2.00000
      3       5.3074      2.00000
      4       5.4389      2.00000
      5      11.9585      0.00000
      6      16.5690      0.00000
      7      17.6078      0.00000
      8      18.3404      0.00000

 k-point    11 :       0.3333    0.0833    0.0000
  band No.  band energies     occupation 
      1      -7.8528      2.00000
      2       1.7020      2.00000
      3       5.1951      2.00000
      4       5.2722      2.00000
      5      12.5821      0.00000
      6      15.8025      0.00000
      7      17.2829      0.00000
      8      17.8699      0.00000

 k-point    12 :       0.4167    0.0833   -0.0000
  band No.  band energies     occupation 
      1      -7.3700      2.00000
      2       0.6831      2.00000
      3       5.0952      2.00000
      4       5.1483      2.00000
      5      12.9870      0.00000
      6      15.1060      0.00000
      7      17.2565      0.00000
      8      17.3709      0.00000

 k-point    13 :       0.5000    0.0833    0.0000
  band No.  band energies     occupation 
      1      -7.0808      2.00000
      2       0.1411      2.00000
      3       4.9531      2.00000
      4       5.1752      2.00000
      5      13.2365      0.00000
      6      14.6950      0.00000
      7      17.0551      0.00000
      8      17.2944      0.00000

 k-point    14 :      -0.4167    0.0833    0.0000
  band No.  band energies     occupation 
      1      -7.1439      2.00000
      2       0.2559      2.00000
      3       4.8789      2.00000
      4       5.2686      2.00000
      5      13.2493      0.00000
      6      14.7672      0.00000
      7      17.0087      0.00000
      8      17.3321      0.00000

 k-point    15 :      -0.3333    0.0833    0.0000
  band No.  band energies     occupation 
      1      -7.5207      2.00000
      2       0.9832      2.00000
      3       4.8921      2.00000
      4       5.4075      2.00000
      5      12.9881      0.00000
      6      15.3191      0.00000
      7      17.2585      0.00000
      8      17.3629      0.00000

 k-point    16 :      -0.2500    0.0833   -0.0000
  band No.  band energies     occupation 
      1      -8.0245      2.00000
      2       2.1010      2.00000
      3       4.9981      2.00000
      4       5.5599      2.00000
      5      12.4908      0.00000
      6      16.1211      0.00000
      7      17.4615      0.00000
      8      17.7738      0.00000

 k-point    17 :      -0.1667    0.0833    0.0000
  band No.  band energies     occupation 
      1      -8.4930      2.00000
      2       3.3676      2.00000
      3       5.1891      2.00000
      4       5.6860      2.00000
      5      11.7367      0.00000
      6      16.9000      0.00000
      7      17.8040      0.00000
      8      18.3188      0.00000

 k-point    18 :      -0.0833    0.0833    0.0000
  band No.  band energies     occupation 
      1      -8.8319      2.00000
      2       4.5119      2.00000
      3       5.4554      2.00000
      4       5.7471      2.00000
      5      10.8569      0.00000
      6      17.4607      0.00000
      7      18.1951      0.00000
      8      18.3266      0.00000

 k-point    19 :       0.1667    0.1667   -0.0000
  band No.  band energies     occupation 
      1      -8.5789      2.00000
      2       4.0320      2.00000
      3       5.2460      2.00000
      4       5.2460      2.00000
      5      11.4777      0.00000
      6      16.6902      0.00000
      7      18.2622      0.00000
      8      18.8083      0.00000

 k-point    20 :       0.2500    0.1667   -0.0000
  band No.  band energies     occupation 
      1      -8.2532      2.00000
      2       3.1786      2.00000
      3       5.0447      2.00000
      4       5.0684      2.00000
      5      11.9018      0.00000
      6      16.2978      0.00000
      7      17.1847      0.00000
      8      18.9793      0.00000

 k-point    21 :       0.3333    0.1667   -0.0000
  band No.  band energies     occupation 
      1      -7.8076      2.00000
      2       2.1223      2.00000
      3       4.8226      2.00000
      4       4.9054      2.00000
      5      12.2466      0.00000
      6      15.8614      0.00000
      7      16.8113      0.00000
      8      18.7439      0.00000

 k-point    22 :       0.4167    0.1667    0.0000
  band No.  band energies     occupation 
      1      -7.3357      2.00000
      2       1.1643      2.00000
      3       4.5032      2.00000
      4       4.8572      2.00000
      5      12.5129      0.00000
      6      15.2482      0.00000
      7      17.1981      0.00000
      8      18.2831      0.00000

 k-point    23 :       0.5000    0.1667    0.0000
  band No.  band energies     occupation 
      1      -6.9906      2.00000
      2       0.5415      2.00000
      3       4.2012      2.00000
      4       4.9085      2.00000
      5      12.8299      0.00000
      6      14.7411      0.00000
      7      17.6338      0.00000
      8      17.8639      0.00000

 k-point    24 :      -0.4167    0.1667   -0.0000
  band No.  band energies     occupation 
      1      -6.9375      2.00000
      2       0.4540      2.00000
      3       3.9987      2.00000
      4       5.0484      2.00000
      5      13.2916      0.00000
      6      14.3768      0.00000
      7      17.6302      0.00000
      8      17.7196      0.00000

 k-point    25 :      -0.3333    0.1667    0.0000
  band No.  band energies     occupation 
      1      -7.2064      2.00000
      2       0.9245      2.00000
      3       3.9576      2.00000
      4       5.2473      2.00000
      5      13.6171      0.00000
      6      14.4189      0.00000
      7      17.4429      0.00000
      8      17.6431      0.00000

 k-point    26 :      -0.2500    0.1667   -0.0000
  band No.  band energies     occupation 
      1      -7.6572      2.00000
      2       1.7503      2.00000
      3       4.1320      2.00000
      4       5.4581      2.00000
      5      13.2464      0.00000
      6      15.2854      0.00000
      7      17.0805      0.00000
      8      17.9067      0.00000

 k-point    27 :      -0.1667    0.1667    0.0000
  band No.  band energies     occupation 
      1      -8.1231      2.00000
      2       2.6370      2.00000
      3       4.5695      2.00000
      4       5.6222      2.00000
      5      12.5396      0.00000
      6      16.3790      0.00000
      7      17.0256      0.00000
      8      18.2791      0.00000

 k-point    28 :       0.2500    0.2500   -0.0000
  band No.  band energies     occupation 
      1      -7.9980      2.00000
      2       2.8873      2.00000
      3       4.7921      2.00000
      4       4.7921      2.00000
      5      11.6090      0.00000
      6      15.8197      0.00000
      7      17.0884      0.00000
      8      19.5305      0.00000

 k-point    29 :       0.3333    0.2500   -0.0000
  band No.  band energies     occupation 
      1      -7.6202      2.00000
      2       2.2271      2.00000
      3       4.5026      2.00000
      4       4.6101      2.00000
      5      11.3507      0.00000
      6      15.5533      0.00000
      7      17.0782      0.00000
      8      19.6779      0.00000

 k-point    30 :       0.4167    0.2500   -0.0000
  band No.  band energies     occupation 
      1      -7.1966      2.00000
      2       1.5405      2.00000
      3       4.0159      2.00000
      4       4.5346      2.00000
      5      11.3401      0.00000
      6      15.5711      0.00000
      7      17.1955      0.00000
      8      19.4101      0.00000

 k-point    31 :       0.5000    0.2500    0.0000
  band No.  band energies     occupation 
      1      -6.8505      2.00000
      2       1.0520      2.00000
      3       3.4592      2.00000
      4       4.5785      2.00000
      5      11.5826      0.00000
      6      15.5576      0.00000
      7      17.6272      0.00000
      8      18.9821      0.00000

 k-point    32 :      -0.4167    0.2500   -0.0000
  band No.  band energies     occupation 
      1      -6.7239      2.00000
      2       0.9156      2.00000
      3       3.0349      2.00000
      4       4.7339      2.00000
      5      12.0616      0.00000
      6      15.3891      0.00000
      7      17.9250      0.00000
      8      18.5887      0.00000

 k-point    33 :      -0.3333    0.2500   -0.0000
  band No.  band energies     occupation 
      1      -6.8787      2.00000
      2       1.1259      2.00000
      3       2.9279      2.00000
      4       4.9710      2.00000
      5      12.7593      0.00000
      6      15.1088      0.00000
      7      17.6285      0.00000
      8      18.3026      0.00000

 k-point    34 :      -0.2500    0.2500    0.0000
  band No.  band energies     occupation 
      1      -7.2367      2.00000
      2       1.4502      2.00000
      3       3.3169      2.00000
      4       5.2368      2.00000
      5      13.4767      0.00000
      6      14.7930      0.00000
      7      17.1825      0.00000
      8      18.1006      0.00000

 k-point    35 :       0.3333    0.3333   -0.0000
  band No.  band energies     occupation 
      1      -7.3224      2.00000
      2       1.9027      2.00000
      3       4.3819      2.00000
      4       4.3819      2.00000
      5      10.5178      0.00000
      6      14.9827      0.00000
      7      17.8287      0.00000
      8      20.3087      0.00000

 k-point    36 :       0.4167    0.3333   -0.0000
  band No.  band energies     occupation 
      1      -6.9789      2.00000
      2       1.4850      2.00000
      3       4.0077      2.00000
      4       4.2654      2.00000
      5      10.1925      0.00000
      6      14.8810      0.00000
      7      18.1928      0.00000
      8      20.4129      0.00000

 k-point    37 :       0.5000    0.3333   -0.0000
  band No.  band energies     occupation 
      1      -6.6878      2.00000
      2       1.2666      2.00000
      3       3.2697      2.00000
      4       4.2799      2.00000
      5      10.4037      0.00000
      6      15.2364      0.00000
      7      18.3293      0.00000
      8      20.1108      0.00000

 k-point    38 :      -0.4167    0.3333   -0.0000
  band No.  band energies     occupation 
      1      -6.5546      2.00000
      2       1.3881      2.00000
      3       2.4452      2.00000
      4       4.4231      2.00000
      5      10.9583      0.00000
      6      15.6845      0.00000
      7      18.3883      0.00000
      8      19.6101      0.00000

 k-point    39 :      -0.3333    0.3333   -0.0000
  band No.  band energies     occupation 
      1      -6.6309      2.00000
      2       1.5274      2.00000
      3       2.1321      2.00000
      4       4.6703      2.00000
      5      11.7567      0.00000
      6      15.7157      0.00000
      7      18.0597      0.00000
      8      18.9993      0.00000

 k-point    40 :       0.4167    0.4167   -0.0000
  band No.  band energies     occupation 
      1      -6.7382      2.00000
      2       1.1927      2.00000
      3       4.1040      2.00000
      4       4.1040      2.00000
      5       9.4619      0.00000
      6      14.4234      0.00000
      7      18.9296      0.00000
      8      20.9511      0.00000

 k-point    41 :       0.5000    0.4167   -0.0000
  band No.  band energies     occupation 
      1      -6.5513      2.00000
      2       1.0547      2.00000
      3       3.7143      2.00000
      4       4.0775      2.00000
      5       9.4626      0.00000
      6      14.5247      0.00000
      7      19.1487      0.00000
      8      20.9228      0.00000

 k-point    42 :      -0.4167    0.4167   -0.0000
  band No.  band energies     occupation 
      1      -6.4849      2.00000
      2       1.2163      2.00000
      3       2.9374      2.00000
      4       4.1899      2.00000
      5      10.0568      0.00000
      6      15.1052      0.00000
      7      18.9856      0.00000
      8      20.4375      0.00000

 k-point    43 :       0.5000    0.5000   -0.0000
  band No.  band energies     occupation 
      1      -6.4970      2.00000
      2       0.9217      2.00000
      3       4.0064      2.00000
      4       4.0064      2.00000
      5       9.0634      0.00000
      6      14.2327      0.00000
      7      19.4134      0.00000
      8      21.2103      0.00000

 k-point    44 :       0.2500    0.1667    0.0833
  band No.  band energies     occupation 
      1      -8.4605      2.00000
      2       3.4977      2.00000
      3       5.0532      2.00000
      4       5.5140      2.00000
      5      11.7854      0.00000
      6      16.7481      0.00000
      7      17.5753      0.00000
      8      18.6830      0.00000

 k-point    45 :       0.3333    0.1667    0.0833
  band No.  band energies     occupation 
      1      -8.0413      2.00000
      2       2.4688      2.00000
      3       4.6979      2.00000
      4       5.4101      2.00000
      5      12.4538      0.00000
      6      16.1395      0.00000
      7      16.9719      0.00000
      8      18.4457      0.00000

 k-point    46 :       0.4167    0.1667    0.0833
  band No.  band energies     occupation 
      1      -7.5543      2.00000
      2       1.4201      2.00000
      3       4.4787      2.00000
      4       5.2391      2.00000
      5      12.9513      0.00000
      6      15.2351      0.00000
      7      17.1442      0.00000
      8      17.9697      0.00000

 k-point    47 :       0.5000    0.1667    0.0833
  band No.  band energies     occupation 
      1      -7.1345      2.00000
      2       0.6195      2.00000
      3       4.3729      2.00000
      4       5.0807      2.00000
      5      13.3072      0.00000
      6      14.4965      0.00000
      7      17.4765      0.00000
      8      17.6288      0.00000

 k-point    48 :      -0.4167    0.1667    0.0833
  band No.  band energies     occupation 
      1      -6.9619      2.00000
      2       0.3134      2.00000
      3       4.3448      2.00000
      4       5.0153      2.00000
      5      13.5264      0.00000
      6      14.1267      0.00000
      7      17.4857      0.00000
      8      17.6488      0.00000

 k-point    49 :       0.3333    0.2500    0.0833
  band No.  band energies     occupation 
      1      -7.8994      2.00000
      2       2.5401      2.00000
      3       4.5595      2.00000
      4       5.0036      2.00000
      5      11.9989      0.00000
      6      16.0832      0.00000
      7      16.6210      0.00000
      8      19.2183      0.00000

 k-point    50 :       0.4167    0.2500    0.0833
  band No.  band energies     occupation 
      1      -7.4607      2.00000
      2       1.7787      2.00000
      3       4.1423      2.00000
      4       4.8273      2.00000
      5      12.1088      0.00000
      6      15.8450      0.00000
      7      16.5739      0.00000
      8      18.9883      0.00000

 k-point    51 :       0.5000    0.2500    0.0833
  band No.  band energies     occupation 
      1      -7.0462      2.00000
      2       1.1038      2.00000
      3       3.8032      2.00000
      4       4.6687      2.00000
      5      12.2726      0.00000
      6      15.3829      0.00000
      7      17.1735      0.00000
      8      18.6282      0.00000

 k-point    52 :      -0.4167    0.2500    0.0833
  band No.  band energies     occupation 
      1      -6.8087      2.00000
      2       0.7418      2.00000
      3       3.5386      2.00000
      4       4.6578      2.00000
      5      12.5357      0.00000
      6      15.0156      0.00000
      7      17.6869      0.00000
      8      18.3438      0.00000

 k-point    53 :      -0.3333    0.2500    0.0833
  band No.  band energies     occupation 
      1      -6.8658      2.00000
      2       0.8364      2.00000
      3       3.4165      2.00000
      4       4.8010      2.00000
      5      12.8793      0.00000
      6      14.8413      0.00000
      7      17.6096      0.00000
      8      18.2223      0.00000

 k-point    54 :      -0.2500    0.2500    0.0833
  band No.  band energies     occupation 
      1      -7.1862      2.00000
      2       1.3119      2.00000
      3       3.5372      2.00000
      4       5.0356      2.00000
      5      13.1122      0.00000
      6      14.9909      0.00000
      7      17.0871      0.00000
      8      18.2797      0.00000

 k-point    55 :      -0.1667    0.2500    0.0833
  band No.  band energies     occupation 
      1      -7.6245      2.00000
      2       1.9165      2.00000
      3       3.9876      2.00000
      4       5.2717      2.00000
      5      12.9517      0.00000
      6      15.5359      0.00000
      7      16.7208      0.00000
      8      18.4187      0.00000

 k-point    56 :       0.4167    0.3333    0.0833
  band No.  band energies     occupation 
      1      -7.2546      2.00000
      2       1.7699      2.00000
      3       4.1158      2.00000
      4       4.4164      2.00000
      5      11.0024      0.00000
      6      15.3848      0.00000
      7      17.3234      0.00000
      8      19.8612      0.00000

 k-point    57 :       0.5000    0.3333    0.0833
  band No.  band energies     occupation 
      1      -6.8912      2.00000
      2       1.3920      2.00000
      3       3.5662      2.00000
      4       4.2335      2.00000
      5      11.0726      0.00000
      6      15.5943      0.00000
      7      17.4128      0.00000
      8      19.5959      0.00000

 k-point    58 :      -0.4167    0.3333    0.0833
  band No.  band energies     occupation 
      1      -6.6497      2.00000
      2       1.2413      2.00000
      3       2.9180      2.00000
      4       4.2498      2.00000
      5      11.4269      0.00000
      6      15.7854      0.00000
      7      17.7085      0.00000
      8      19.1426      0.00000

 k-point    59 :      -0.3333    0.3333    0.0833
  band No.  band energies     occupation 
      1      -6.6306      2.00000
      2       1.3248      2.00000
      3       2.5031      2.00000
      4       4.4357      2.00000
      5      11.9661      0.00000
      6      15.6838      0.00000
      7      17.8415      0.00000
      8      18.7600      0.00000

 k-point    60 :      -0.2500    0.3333    0.0833
  band No.  band energies     occupation 
      1      -6.8396      2.00000
      2       1.3492      2.00000
      3       2.7379      2.00000
      4       4.7279      2.00000
      5      12.6146      0.00000
      6      15.3564      0.00000
      7      17.3629      0.00000
      8      18.5917      0.00000

 k-point    61 :       0.5000    0.4167    0.0833
  band No.  band energies     occupation 
      1      -6.7065      2.00000
      2       1.2565      2.00000
      3       3.8165      2.00000
      4       3.9328      2.00000
      5      10.0273      0.00000
      6      14.8876      0.00000
      7      18.5235      0.00000
      8      20.2860      0.00000

 k-point    62 :      -0.4167    0.4167    0.0833
  band No.  band energies     occupation 
      1      -6.5256      2.00000
      2       1.2902      2.00000
      3       3.0727      2.00000
      4       3.9161      2.00000
      5      10.4277      0.00000
      6      15.3545      0.00000
      7      18.5623      0.00000
      8      19.6353      0.00000

 k-point    63 :      -0.3333    0.4167    0.0833
  band No.  band energies     occupation 
      1      -6.4998      2.00000
      2       1.6176      2.00000
      3       2.2458      2.00000
      4       4.1129      2.00000
      5      11.1177      0.00000
      6      15.8644      0.00000
      7      18.4006      0.00000
      8      18.9544      0.00000

 k-point    64 :      -0.4167    0.5000    0.0833
  band No.  band energies     occupation 
      1      -6.4839      2.00000
      2       1.0708      2.00000
      3       3.7131      2.00000
      4       3.7392      2.00000
      5       9.6668      0.00000
      6      14.7165      0.00000
      7      19.1817      0.00000
      8      20.2954      0.00000

 k-point    65 :       0.5000    0.3333    0.1667
  band No.  band energies     occupation 
      1      -7.0732      2.00000
      2       1.4961      2.00000
      3       3.4735      2.00000
      4       4.5547      2.00000
      5      12.1154      0.00000
      6      16.0508      0.00000
      7      16.3915      0.00000
      8      19.0370      0.00000

 k-point    66 :      -0.4167    0.3333    0.1667
  band No.  band energies     occupation 
      1      -6.7556      2.00000
      2       1.2866      2.00000
      3       3.0185      2.00000
      4       4.2589      2.00000
      5      12.1662      0.00000
      6      15.7718      0.00000
      7      17.0704      0.00000
      8      18.8527      0.00000

 k-point    67 :      -0.3333    0.3333    0.1667
  band No.  band energies     occupation 
      1      -6.6303      2.00000
      2       1.2006      2.00000
      3       2.8649      2.00000
      4       4.1347      2.00000
      5      12.1888      0.00000
      6      15.6386      0.00000
      7      17.5797      0.00000
      8      18.6340      0.00000

 k-point    68 :      -0.4167    0.4167    0.1667
  band No.  band energies     occupation 
      1      -6.6294      2.00000
      2       1.4227      2.00000
      3       3.1327      2.00000
      4       3.7287      2.00000
      5      11.2645      0.00000
      6      16.0134      0.00000
      7      17.3100      0.00000
      8      19.2347      0.00000

 k-point    69 :      -0.3333    0.4167    0.1667
  band No.  band energies     occupation 
      1      -6.4995      2.00000
      2       1.6572      2.00000
      3       2.5289      2.00000
      4       3.5814      2.00000
      5      11.6253      0.00000
      6      16.3543      0.00000
      7      17.5264      0.00000
      8      18.5033      0.00000

 k-point    70 :      -0.2500    0.4167    0.1667
  band No.  band energies     occupation 
      1      -6.5489      2.00000
      2       1.6734      2.00000
      3       2.3759      2.00000
      4       3.8232      2.00000
      5      11.9594      0.00000
      6      16.2176      0.00000
      7      17.3785      0.00000
      8      18.5261      0.00000

 k-point    71 :      -0.3333    0.5000    0.1667
  band No.  band energies     occupation 
      1      -6.4573      2.00000
      2       1.4983      2.00000
      3       3.0210      2.00000
      4       3.2994      2.00000
      5      10.9619      0.00000
      6      15.9071      0.00000
      7      18.4995      0.00000
      8      18.5098      0.00000

 k-point    72 :      -0.2500    0.5000    0.2500
  band No.  band energies     occupation 
      1      -6.4438      2.00000
      2       2.0002      2.00000
      3       2.3966      2.00000
      4       3.1109      2.00000
      5      11.7513      0.00000
      6      17.0547      0.00000
      7      17.5161      0.00000
      8      17.6106      0.00000


--------------------------------------------------------------------------------------------------------


 soft charge-density along one line, spin component           1
         0         1         2         3         4         5         6         7         8         9
 total charge-density along one line
 
 pseudopotential strength for first ion, spin component:           1
  8.428  14.363  -0.000  -0.000  -0.000  -0.000  -0.000  -0.000
 14.363  24.476  -0.000  -0.000  -0.000  -0.000  -0.000  -0.000
 -0.000  -0.000   1.992   0.000   0.000   5.738   0.000   0.000
 -0.000  -0.000   0.000   1.992   0.000   0.000   5.738   0.000
 -0.000  -0.000   0.000   0.000   1.992   0.000   0.000   5.738
 -0.000  -0.000   5.738   0.000   0.000  16.443   0.000   0.000
 -0.000  -0.000   0.000   5.738   0.000   0.000  16.443   0.000
 -0.000  -0.000   0.000   0.000   5.738   0.000   0.000  16.443
 total augmentation occupancy for first ion, spin component:           1
  5.418  -1.842   0.000   0.000   0.000   0.000   0.000   0.000
 -1.842   0.663   0.000   0.000   0.000   0.000   0.000   0.000
  0.000   0.000   1.626  -0.000  -0.000  -0.143   0.000   0.000
  0.000   0.000   0.000   1.626   0.000  -0.000  -0.143   0.000
  0.000   0.000   0.000   0.000   1.626   0.000   0.000  -0.143
  0.000   0.000  -0.143  -0.000   0.000   0.014   0.000   0.000
  0.000   0.000   0.000  -0.143   0.000   0.000   0.014   0.000
  0.000   0.000  -0.000   0.000  -0.143  -0.000   0.000   0.014


------------------------ aborting loop because EDIFF is reached ----------------------------------------


 


 total charge     
 
# of ion       s       p       d       tot
------------------------------------------
    1        0.367   0.434   0.000   0.802
    2        1.219   2.588   0.000   3.807
--------------------------------------------------
tot          1.586   3.023   0.000   4.609
 
    CHARGE:  cpu time    0.0208: real time    0.0208
    FORLOC:  cpu time    0.0004: real time    0.0004
    FORNL :  cpu time    0.0784: real time    0.0784
    STRESS:  cpu time    0.2639: real time    0.2638
    FORCOR:  cpu time    0.0062: real time    0.0062
    FORHAR:  cpu time    0.0014: real time    0.0014
    MIXING:  cpu time    0.0004: real time    0.0004
    OFIELD:  cpu time    0.0000: real time    0.0000

  FORCE on cell =-STRESS in cart. coord.  units (eV):
  Direction    XX          YY          ZZ          XY          YZ          ZX
  --------------------------------------------------------------------------------------
  Alpha Z     7.66789     7.66789     7.66789
  Ewald     -98.12124   -98.12124   -98.12124     0.00000     0.00000     0.00000
  Hartree    25.99610    25.99610    25.99610     0.00000     0.00000     0.00000
  E(xc)     -31.24782   -31.24782   -31.24782    -0.00000    -0.00000    -0.00000
  Local     -26.41141   -26.41141   -26.41141    -0.00000    -0.00000    -0.00000
  n-local     5.51773     6.30047     4.38928    -0.86042     0.76813    -0.46867
  augment     0.32268     0.32268     0.32268     0.00000     0.00000     0.00000
  Kinetic   118.97757   116.62910   113.56568     4.83311    -3.09325     2.03279
  Fock        0.00000     0.00000     0.00000     0.00000     0.00000     0.00000
  -------------------------------------------------------------------------------------
  Total      -0.00052    -0.00052    -0.00052    -0.00000     0.00000    -0.00000
  in kB      -0.03911    -0.03911    -0.03911    -0.00000     0.00000    -0.00000
  external pressure =       -0.04 kB  Pullay stress =        0.00 kB


 VOLUME and BASIS-vectors are now :
 -----------------------------------------------------------------------------
  energy-cutoff  :      800.00
  volume of cell :       21.31
      direct lattice vectors                 reciprocal lattice vectors
     0.000000000  2.200634295  2.200634295    -0.227207220  0.227207220  0.227207220
     2.200634295  0.000000000  2.200634295     0.227207220 -0.227207220  0.227207220
     2.200634295  2.200634295  0.000000000     0.227207220  0.227207220 -0.227207220

  length of vectors
     3.112166866  3.112166866  3.112166866     0.393534449  0.393534449  0.393534449


 FORCES acting on ions
    electron-ion (+dipol)            ewald-force                    non-local-force                 convergence-correction
 -----------------------------------------------------------------------------------------------
   0.124E-07 0.124E-07 0.135E-07   -.216E-14 0.130E-14 -.514E-14   0.405E-16 -.705E-16 -.604E-16   -.836E-10 -.836E-10 -.836E-10
   0.366E-09 0.366E-09 0.351E-09   0.229E-14 -.133E-14 0.531E-14   -.201E-17 -.201E-17 0.779E-17   -.552E-10 -.552E-10 -.552E-10
 -----------------------------------------------------------------------------------------------
   0.128E-07 0.128E-07 0.138E-07   0.128E-15 -.332E-16 0.166E-15   0.385E-16 -.725E-16 -.526E-16   -.139E-09 -.139E-09 -.139E-09
 
 
 POSITION                                       TOTAL-FORCE (eV/Angst)
 -----------------------------------------------------------------------------------
      0.00000      0.00000      0.00000         0.000000      0.000000      0.000000
      1.10032      1.10032      1.10032        -0.000000     -0.000000     -0.000000
 -----------------------------------------------------------------------------------
    total drift:                                0.000000      0.000000      0.000000


--------------------------------------------------------------------------------------------------------



  FREE ENERGIE OF THE ION-ELECTRON SYSTEM (eV)
  ---------------------------------------------------
  free  energy   TOTEN  =       -14.85328467 eV

  energy  without entropy=      -14.85328467  energy(sigma->0) =      -14.85328467
 


--------------------------------------------------------------------------------------------------------


    POTLOK:  cpu time    0.0485: real time    0.0485


--------------------------------------------------------------------------------------------------------




--------------------------------------------------------------------------------------------------------


  
 reached required accuracy - stopping structural energy minimisation
     LOOP+:  cpu time    3.6415: real time    3.6415
    4ORBIT:  cpu time    0.0000: real time    0.0000
 


 total charge     
 
# of ion       s       p       d       tot
------------------------------------------
    1        0.367   0.434   0.000   0.802
    2        1.219   2.588   0.000   3.807
--------------------------------------------------
tot          1.586   3.023   0.000   4.609
 

 total amount of memory used by VASP MPI-rank0    37984. kBytes
=======================================================================

   base      :      30000. kBytes
   nonl-proj :       2090. kBytes
   fftplans  :       3356. kBytes
   grid      :       1457. kBytes
   one-center:          3. kBytes
   wavefun   :       1078. kBytes
 
  
  
 General timing and accounting informations for this job:
 ========================================================
  
                  Total CPU time used (sec):        4.214
                            User time (sec):        4.118
                          System time (sec):        0.096
                         Elapsed time (sec):        4.228
  
                   Maximum memory used (kb):       97136.
                   Average memory used (kb):           0.
  
                          Minor page faults:        19478
                          Major page faults:            0
                 Voluntary context switches:           44
