PROCAR new format
# of k-points:   72         # of bands:    8         # of ions:    2

 k-point     1 :    0.00000000 0.00000000 0.00000000     weight = 0.00057870

band     1 # energy   -9.09323399 # occ.  2.00000000
 
ion      s      p      d    tot
    1  0.115  0.000  0.000  0.115
    2  0.462  0.000  0.000  0.462
tot    0.576  0.000  0.000  0.576
 
band     2 # energy    5.75680947 # occ.  2.00000000
 
ion      s      p      d    tot
    1  0.000  0.019  0.000  0.019
    2  0.000  0.596  0.000  0.596
tot    0.000  0.615  0.000  0.615
 
band     3 # energy    5.75680947 # occ.  2.00000000
 
ion      s      p      d    tot
    1  0.000  0.019  0.000  0.019
    2  0.000  0.596  0.000  0.596
tot    0.000  0.615  0.000  0.615
 
band     4 # energy    5.75680982 # occ.  2.00000000
 
ion      s      p      d    tot
    1  0.000  0.019  0.000  0.019
    2  0.000  0.596  0.000  0.596
tot    0.000  0.615  0.000  0.615
 
band     5 # energy    9.75508854 # occ.  0.00000000
 
ion      s      p      d    tot
    1  0.126  0.000  0.000  0.126
    2  0.342  0.000  0.000  0.342
tot    0.467  0.000  0.000  0.467
 
band     6 # energy   18.09246902 # occ.  0.00000000
 
ion      s      p      d    tot
    1  0.000  0.422  0.000  0.422
    2  0.000  0.001  0.000  0.001
tot    0.000  0.422  0.000  0.422
 
band     7 # energy   18.09246902 # occ.  0.00000000
 
ion      s      p      d    tot
    1  0.000  0.422  0.000  0.422
    2  0.000  0.001  0.000  0.001
tot    0.000  0.422  0.000  0.422
 
band     8 # energy   18.09246904 # occ.  0.00000000
 
ion      s      p      d    tot
    1  0.000  0.422  0.000  0.422
    2  0.000  0.001  0.000  0.001
tot    0.000  0.422  0.000  0.422
 

 k-point     2 :    0.08333333 0.00000000-0.00000000     weight = 0.00462963

band     1 # energy   -8.99391707 # occ.  2.00000000
 
ion      s      p      d    tot
    1  0.111  0.002  0.000  0.113
    2  0.465  0.000  0.000  0.466
tot    0.577  0.002  0.000  0.579
 
band     2 # energy    5.16641396 # occ.  2.00000000
 
ion      s      p      d    tot
    1  0.018  0.022  0.000  0.040
    2  0.036  0.512  0.000  0.548
tot    0.054  0.534  0.000  0.588
 
band     3 # energy    5.72055649 # occ.  2.00000000
 
ion      s      p      d    tot
    1  0.000  0.022  0.000  0.022
    2  0.000  0.593  0.000  0.593
tot    0.000  0.615  0.000  0.615
 
band     4 # energy    5.72055680 # occ.  2.00000000
 
ion      s      p      d    tot
    1  0.000  0.022  0.000  0.022
    2  0.000  0.593  0.000  0.593
tot    0.000  0.615  0.000  0.615
 
band     5 # energy   10.24579895 # occ.  0.00000000
 
ion      s      p      d    tot
    1  0.108  0.008  0.000  0.116
    2  0.297  0.075  0.000  0.372
tot    0.405  0.083  0.000  0.488
 
band     6 # energy   17.81455544 # occ.  0.00000000
 
ion      s      p      d    tot
    1  0.037  0.360  0.000  0.397
    2  0.000  0.026  0.000  0.026
tot    0.037  0.386  0.000  0.423
 
band     7 # energy   18.19166675 # occ.  0.00000000
 
ion      s      p      d    tot
    1  0.000  0.418  0.000  0.418
    2  0.000  0.007  0.000  0.007
tot    0.000  0.425  0.000  0.425
 
band     8 # energy   18.19166677 # occ.  0.00000000
 
ion      s      p      d    tot
    1  0.000  0.418  0.000  0.418
    2  0.000  0.007  0.000  0.007
tot    0.000  0.425  0.000  0.425
 

 k-point     3 :    0.16666667 0.00000000-0.00000000     weight = 0.00462963

band     1 # energy   -8.70648902 # occ.  2.00000000
 
ion      s      p      d    tot
    1  0.102  0.007  0.000  0.108
    2  0.477  0.002  0.000  0.479
tot    0.579  0.008  0.000  0.587
 
band     2 # energy    3.91477663 # occ.  2.00000000
 
ion      s      p      d    tot
    1  0.042  0.032  0.000  0.074
    2  0.068  0.407  0.000  0.475
tot    0.110  0.439  0.000  0.549
 
band     3 # energy    5.62511816 # occ.  2.00000000
 
ion      s      p      d    tot
    1  0.000  0.031  0.000  0.031
    2  0.000  0.586  0.000  0.586
tot    0.000  0.617  0.000  0.617
 
band     4 # energy    5.62511846 # occ.  2.00000000
 
ion      s      p      d    tot
    1  0.000  0.031  0.000  0.031
    2  0.000  0.586  0.000  0.586
tot    0.000  0.617  0.000  0.617
 
band     5 # energy   11.18350911 # occ.  0.00000000
 
ion      s      p      d    tot
    1  0.088  0.027  0.000  0.115
    2  0.240  0.149  0.000  0.388
tot    0.328  0.176  0.000  0.504
 
band     6 # energy   17.18738672 # occ.  0.00000000
 
ion      s      p      d    tot
    1  0.097  0.237  0.000  0.334
    2  0.002  0.093  0.000  0.095
tot    0.099  0.329  0.000  0.428
 
band     7 # energy   18.26365323 # occ.  0.00000000
 
ion      s      p      d    tot
    1  0.000  0.381  0.000  0.381
    2  0.000  0.019  0.000  0.019
tot    0.000  0.399  0.000  0.399
 
band     8 # energy   18.26365325 # occ.  0.00000000
 
ion      s      p      d    tot
    1  0.000  0.381  0.000  0.381
    2  0.000  0.019  0.000  0.019
tot    0.000  0.399  0.000  0.399
 

 k-point     4 :    0.25000000 0.00000000-0.00000000     weight = 0.00462963

band     1 # energy   -8.26681772 # occ.  2.00000000
 
ion      s      p      d    tot
    1  0.086  0.014  0.000  0.100
    2  0.499  0.003  0.000  0.501
tot    0.585  0.017  0.000  0.602
 
band     2 # energy    2.53020886 # occ.  2.00000000
 
ion      s      p      d    tot
    1  0.063  0.044  0.000  0.107
    2  0.070  0.339  0.000  0.409
tot    0.133  0.383  0.000  0.516
 
band     3 # energy    5.50234208 # occ.  2.00000000
 
ion      s      p      d    tot
    1  0.000  0.041  0.000  0.041
    2  0.000  0.578  0.000  0.578
tot    0.000  0.619  0.000  0.619
 
band     4 # energy    5.50234238 # occ.  2.00000000
 
ion      s      p      d    tot
    1  0.000  0.041  0.000  0.041
    2  0.000  0.578  0.000  0.578
tot    0.000  0.619  0.000  0.619
 
band     5 # energy   12.02111896 # occ.  0.00000000
 
ion      s      p      d    tot
    1  0.092  0.047  0.000  0.139
    2  0.199  0.152  0.000  0.351
tot    0.292  0.198  0.000  0.490
 
band     6 # energy   16.52259937 # occ.  0.00000000
 
ion      s      p      d    tot
    1  0.119  0.126  0.000  0.245
    2  0.005  0.187  0.000  0.192
tot    0.123  0.313  0.000  0.437
 
band     7 # energy   17.89644058 # occ.  0.00000000
 
ion      s      p      d    tot
    1  0.000  0.295  0.000  0.295
    2  0.000  0.018  0.000  0.018
tot    0.000  0.313  0.000  0.313
 
band     8 # energy   17.89644059 # occ.  0.00000000
 
ion      s      p      d    tot
    1  0.000  0.295  0.000  0.295
    2  0.000  0.018  0.000  0.018
tot    0.000  0.313  0.000  0.313
 

 k-point     5 :    0.33333333-0.00000000 0.00000000     weight = 0.00462963

band     1 # energy   -7.75085127 # occ.  2.00000000
 
ion      s      p      d    tot
    1  0.066  0.022  0.000  0.088
    2  0.531  0.003  0.000  0.534
tot    0.596  0.025  0.000  0.621
 
band     2 # energy    1.26812701 # occ.  2.00000000
 
ion      s      p      d    tot
    1  0.086  0.053  0.000  0.139
    2  0.049  0.297  0.000  0.346
tot    0.135  0.350  0.000  0.485
 
band     3 # energy    5.38735492 # occ.  2.00000000
 
ion      s      p      d    tot
    1  0.000  0.051  0.000  0.051
    2  0.000  0.571  0.000  0.571
tot    0.000  0.622  0.000  0.622
 
band     4 # energy    5.38735522 # occ.  2.00000000
 
ion      s      p      d    tot
    1  0.000  0.051  0.000  0.051
    2  0.000  0.571  0.000  0.571
tot    0.000  0.622  0.000  0.622
 
band     5 # energy   12.57090071 # occ.  0.00000000
 
ion      s      p      d    tot
    1  0.131  0.053  0.000  0.183
    2  0.174  0.099  0.000  0.273
tot    0.305  0.151  0.000  0.456
 
band     6 # energy   15.97402215 # occ.  0.00000000
 
ion      s      p      d    tot
    1  0.090  0.056  0.000  0.146
    2  0.006  0.286  0.000  0.292
tot    0.096  0.342  0.000  0.438
 
band     7 # energy   17.32801758 # occ.  0.00000000
 
ion      s      p      d    tot
    1  0.000  0.245  0.000  0.245
    2  0.000  0.010  0.000  0.010
tot    0.000  0.255  0.000  0.255
 
band     8 # energy   17.32801758 # occ.  0.00000000
 
ion      s      p      d    tot
    1  0.000  0.245  0.000  0.245
    2  0.000  0.010  0.000  0.010
tot    0.000  0.255  0.000  0.255
 

 k-point     6 :    0.41666667-0.00000000 0.00000000     weight = 0.00462963

band     1 # energy   -7.29946243 # occ.  2.00000000
 
ion      s      p      d    tot
    1  0.045  0.029  0.000  0.074
    2  0.567  0.001  0.000  0.568
tot    0.612  0.030  0.000  0.643
 
band     2 # energy    0.34513488 # occ.  2.00000000
 
ion      s      p      d    tot
    1  0.107  0.057  0.000  0.165
    2  0.018  0.275  0.000  0.293
tot    0.125  0.333  0.000  0.458
 
band     3 # energy    5.30761982 # occ.  2.00000000
 
ion      s      p      d    tot
    1  0.000  0.057  0.000  0.057
    2  0.000  0.567  0.000  0.567
tot    0.000  0.624  0.000  0.624
 
band     4 # energy    5.30762012 # occ.  2.00000000
 
ion      s      p      d    tot
    1  0.000  0.057  0.000  0.057
    2  0.000  0.567  0.000  0.567
tot    0.000  0.624  0.000  0.624
 
band     5 # energy   12.84888901 # occ.  0.00000000
 
ion      s      p      d    tot
    1  0.185  0.045  0.000  0.231
    2  0.162  0.033  0.000  0.195
tot    0.347  0.078  0.000  0.426
 
band     6 # energy   15.60346142 # occ.  0.00000000
 
ion      s      p      d    tot
    1  0.041  0.024  0.000  0.064
    2  0.006  0.361  0.000  0.367
tot    0.047  0.384  0.000  0.431
 
band     7 # energy   16.90881469 # occ.  0.00000000
 
ion      s      p      d    tot
    1  0.000  0.227  0.000  0.227
    2  0.000  0.005  0.000  0.005
tot    0.000  0.232  0.000  0.232
 
band     8 # energy   16.90881469 # occ.  0.00000000
 
ion      s      p      d    tot
    1  0.000  0.227  0.000  0.227
    2  0.000  0.005  0.000  0.005
tot    0.000  0.232  0.000  0.232
 

 k-point     7 :    0.50000000 0.00000000-0.00000000     weight = 0.00231481

band     1 # energy   -7.11147263 # occ.  2.00000000
 
ion      s      p      d    tot
    1  0.036  0.032  0.000  0.067
    2  0.585  0.000  0.000  0.586
tot    0.621  0.032  0.000  0.653
 
band     2 # energy   -0.00372082 # occ.  2.00000000
 
ion      s      p      d    tot
    1  0.117  0.059  0.000  0.176
    2  0.000  0.269  0.000  0.270
tot    0.117  0.328  0.000  0.445
 
band     3 # energy    5.27926181 # occ.  2.00000000
 
ion      s      p      d    tot
    1  0.000  0.059  0.000  0.059
    2  0.000  0.565  0.000  0.565
tot    0.000  0.624  0.000  0.624
 
band     4 # energy    5.27926210 # occ.  2.00000000
 
ion      s      p      d    tot
    1  0.000  0.059  0.000  0.059
    2  0.000  0.565  0.000  0.565
tot    0.000  0.624  0.000  0.624
 
band     5 # energy   12.93133577 # occ.  0.00000000
 
ion      s      p      d    tot
    1  0.212  0.040  0.000  0.252
    2  0.159  0.004  0.000  0.163
tot    0.371  0.044  0.000  0.415
 
band     6 # energy   15.46909666 # occ.  0.00000000
 
ion      s      p      d    tot
    1  0.017  0.015  0.000  0.032
    2  0.006  0.390  0.000  0.396
tot    0.022  0.405  0.000  0.427
 
band     7 # energy   16.76019793 # occ.  0.00000000
 
ion      s      p      d    tot
    1  0.000  0.223  0.000  0.223
    2  0.000  0.003  0.000  0.003
tot    0.000  0.225  0.000  0.225
 
band     8 # energy   16.76019794 # occ.  0.00000000
 
ion      s      p      d    tot
    1  0.000  0.223  0.000  0.223
    2  0.000  0.003  0.000  0.003
tot    0.000  0.225  0.000  0.225
 

 k-point     8 :    0.08333333 0.08333333-0.00000000     weight = 0.00347222

band     1 # energy   -8.96089967 # occ.  2.00000000
 
ion      s      p      d    tot
    1  0.110  0.002  0.000  0.113
    2  0.467  0.001  0.000  0.467
tot    0.577  0.003  0.000  0.580
 
band     2 # energy    5.16829894 # occ.  2.00000000
 
ion      s      p      d    tot
    1  0.023  0.014  0.000  0.038
    2  0.046  0.504  0.000  0.550
tot    0.069  0.519  0.000  0.588
 
band     3 # energy    5.61334598 # occ.  2.00000000
 
ion      s      p      d    tot
    1  0.000  0.028  0.000  0.028
    2  0.000  0.583  0.000  0.583
tot    0.000  0.611  0.000  0.611
 
band     4 # energy    5.61334621 # occ.  2.00000000
 
ion      s      p      d    tot
    1  0.000  0.028  0.000  0.028
    2  0.000  0.583  0.000  0.583
tot    0.000  0.611  0.000  0.611
 
band     5 # energy   10.39765364 # occ.  0.00000000
 
ion      s      p      d    tot
    1  0.101  0.011  0.000  0.111
    2  0.283  0.100  0.000  0.383
tot    0.384  0.110  0.000  0.494
 
band     6 # energy   17.64623235 # occ.  0.00000000
 
ion      s      p      d    tot
    1  0.051  0.369  0.000  0.420
    2  0.001  0.002  0.000  0.002
tot    0.052  0.370  0.000  0.422
 
band     7 # energy   18.28645012 # occ.  0.00000000
 
ion      s      p      d    tot
    1  0.000  0.404  0.000  0.404
    2  0.000  0.025  0.000  0.025
tot    0.000  0.429  0.000  0.429
 
band     8 # energy   18.28645015 # occ.  0.00000000
 
ion      s      p      d    tot
    1  0.000  0.404  0.000  0.404
    2  0.000  0.025  0.000  0.025
tot    0.000  0.429  0.000  0.429
 

 k-point     9 :    0.16666667 0.08333333-0.00000000     weight = 0.01388889

band     1 # energy   -8.73631809 # occ.  2.00000000
 
ion      s      p      d    tot
    1  0.103  0.006  0.000  0.109
    2  0.476  0.002  0.000  0.477
tot    0.579  0.008  0.000  0.586
 
band     2 # energy    4.23755474 # occ.  2.00000000
 
ion      s      p      d    tot
    1  0.041  0.023  0.000  0.064
    2  0.071  0.425  0.000  0.496
tot    0.111  0.448  0.000  0.559
 
band     3 # energy    5.46018813 # occ.  2.00000000
 
ion      s      p      d    tot
    1  0.000  0.038  0.000  0.038
    2  0.000  0.571  0.000  0.571
tot    0.000  0.609  0.000  0.609
 
band     4 # energy    5.54716344 # occ.  2.00000000
 
ion      s      p      d    tot
    1  0.002  0.032  0.000  0.034
    2  0.002  0.576  0.000  0.579
tot    0.005  0.608  0.000  0.613
 
band     5 # energy   11.14051715 # occ.  0.00000000
 
ion      s      p      d    tot
    1  0.080  0.027  0.000  0.106
    2  0.235  0.166  0.000  0.401
tot    0.315  0.192  0.000  0.507
 
band     6 # energy   17.16545845 # occ.  0.00000000
 
ion      s      p      d    tot
    1  0.109  0.282  0.000  0.392
    2  0.003  0.036  0.000  0.038
tot    0.112  0.318  0.000  0.430
 
band     7 # energy   18.25043413 # occ.  0.00000000
 
ion      s      p      d    tot
    1  0.000  0.335  0.000  0.335
    2  0.003  0.032  0.000  0.035
tot    0.003  0.367  0.000  0.370
 
band     8 # energy   18.46186039 # occ.  0.00000000
 
ion      s      p      d    tot
    1  0.000  0.376  0.000  0.376
    2  0.000  0.048  0.000  0.048
tot    0.000  0.424  0.000  0.424
 

 k-point    10 :    0.25000000 0.08333333-0.00000000     weight = 0.01388889

band     1 # energy   -8.34682830 # occ.  2.00000000
 
ion      s      p      d    tot
    1  0.089  0.013  0.000  0.102
    2  0.494  0.003  0.000  0.497
tot    0.583  0.016  0.000  0.599
 
band     2 # energy    2.96229805 # occ.  2.00000000
 
ion      s      p      d    tot
    1  0.059  0.037  0.000  0.096
    2  0.076  0.356  0.000  0.432
tot    0.134  0.393  0.000  0.528
 
band     3 # energy    5.30741028 # occ.  2.00000000
 
ion      s      p      d    tot
    1  0.000  0.050  0.000  0.050
    2  0.000  0.560  0.000  0.560
tot    0.000  0.610  0.000  0.610
 
band     4 # energy    5.43890731 # occ.  2.00000000
 
ion      s      p      d    tot
    1  0.006  0.038  0.000  0.044
    2  0.004  0.568  0.000  0.571
tot    0.010  0.605  0.000  0.615
 
band     5 # energy   11.95846402 # occ.  0.00000000
 
ion      s      p      d    tot
    1  0.069  0.048  0.000  0.117
    2  0.190  0.190  0.000  0.380
tot    0.260  0.237  0.000  0.497
 
band     6 # energy   16.56896383 # occ.  0.00000000
 
ion      s      p      d    tot
    1  0.139  0.160  0.000  0.300
    2  0.008  0.114  0.000  0.122
tot    0.147  0.274  0.000  0.422
 
band     7 # energy   17.60778418 # occ.  0.00000000
 
ion      s      p      d    tot
    1  0.018  0.226  0.000  0.244
    2  0.007  0.019  0.000  0.026
tot    0.024  0.246  0.000  0.270
 
band     8 # energy   18.34040358 # occ.  0.00000000
 
ion      s      p      d    tot
    1  0.000  0.314  0.000  0.314
    2  0.000  0.055  0.000  0.055
tot    0.000  0.370  0.000  0.370
 

 k-point    11 :    0.33333333 0.08333333 0.00000000     weight = 0.01388889

band     1 # energy   -7.85283206 # occ.  2.00000000
 
ion      s      p      d    tot
    1  0.070  0.021  0.000  0.091
    2  0.523  0.003  0.000  0.526
tot    0.593  0.024  0.000  0.617
 
band     2 # energy    1.70198580 # occ.  2.00000000
 
ion      s      p      d    tot
    1  0.079  0.049  0.000  0.128
    2  0.059  0.310  0.000  0.369
tot    0.138  0.359  0.000  0.497
 
band     3 # energy    5.19509508 # occ.  2.00000000
 
ion      s      p      d    tot
    1  0.000  0.058  0.000  0.058
    2  0.000  0.554  0.000  0.554
tot    0.000  0.612  0.000  0.612
 
band     4 # energy    5.27219416 # occ.  2.00000000
 
ion      s      p      d    tot
    1  0.010  0.045  0.000  0.055
    2  0.005  0.555  0.000  0.559
tot    0.014  0.600  0.000  0.615
 
band     5 # energy   12.58205782 # occ.  0.00000000
 
ion      s      p      d    tot
    1  0.086  0.059  0.000  0.145
    2  0.157  0.161  0.000  0.317
tot    0.243  0.220  0.000  0.463
 
band     6 # energy   15.80253019 # occ.  0.00000000
 
ion      s      p      d    tot
    1  0.102  0.091  0.000  0.193
    2  0.016  0.153  0.000  0.169
tot    0.118  0.244  0.000  0.362
 
band     7 # energy   17.28292191 # occ.  0.00000000
 
ion      s      p      d    tot
    1  0.054  0.181  0.000  0.236
    2  0.005  0.086  0.000  0.091
tot    0.059  0.267  0.000  0.327
 
band     8 # energy   17.86992022 # occ.  0.00000000
 
ion      s      p      d    tot
    1  0.000  0.258  0.000  0.258
    2  0.000  0.044  0.000  0.044
tot    0.000  0.302  0.000  0.302
 

 k-point    12 :    0.41666667 0.08333333-0.00000000     weight = 0.01388889

band     1 # energy   -7.37003563 # occ.  2.00000000
 
ion      s      p      d    tot
    1  0.049  0.028  0.000  0.077
    2  0.559  0.002  0.000  0.561
tot    0.608  0.030  0.000  0.638
 
band     2 # energy    0.68308523 # occ.  2.00000000
 
ion      s      p      d    tot
    1  0.101  0.056  0.000  0.157
    2  0.028  0.283  0.000  0.311
tot    0.129  0.339  0.000  0.468
 
band     3 # energy    5.09522297 # occ.  2.00000000
 
ion      s      p      d    tot
    1  0.013  0.052  0.000  0.065
    2  0.005  0.542  0.000  0.547
tot    0.018  0.594  0.000  0.612
 
band     4 # energy    5.14830276 # occ.  2.00000000
 
ion      s      p      d    tot
    1  0.000  0.063  0.000  0.063
    2  0.000  0.552  0.000  0.552
tot    0.000  0.616  0.000  0.616
 
band     5 # energy   12.98700876 # occ.  0.00000000
 
ion      s      p      d    tot
    1  0.131  0.056  0.000  0.187
    2  0.139  0.103  0.000  0.241
tot    0.270  0.159  0.000  0.429
 
band     6 # energy   15.10598665 # occ.  0.00000000
 
ion      s      p      d    tot
    1  0.061  0.069  0.000  0.130
    2  0.019  0.183  0.000  0.202
tot    0.080  0.252  0.000  0.332
 
band     7 # energy   17.25648441 # occ.  0.00000000
 
ion      s      p      d    tot
    1  0.051  0.151  0.000  0.202
    2  0.003  0.160  0.000  0.163
tot    0.053  0.311  0.000  0.364
 
band     8 # energy   17.37089877 # occ.  0.00000000
 
ion      s      p      d    tot
    1  0.000  0.229  0.000  0.229
    2  0.000  0.030  0.000  0.030
tot    0.000  0.259  0.000  0.259
 

 k-point    13 :    0.50000000 0.08333333 0.00000000     weight = 0.01388889

band     1 # energy   -7.08079741 # occ.  2.00000000
 
ion      s      p      d    tot
    1  0.034  0.032  0.000  0.067
    2  0.586  0.000  0.000  0.587
tot    0.621  0.033  0.000  0.653
 
band     2 # energy    0.14110658 # occ.  2.00000000
 
ion      s      p      d    tot
    1  0.115  0.059  0.000  0.174
    2  0.003  0.273  0.000  0.275
tot    0.118  0.332  0.000  0.450
 
band     3 # energy    4.95310892 # occ.  2.00000000
 
ion      s      p      d    tot
    1  0.015  0.057  0.000  0.072
    2  0.006  0.531  0.000  0.537
tot    0.021  0.588  0.000  0.609
 
band     4 # energy    5.17521687 # occ.  2.00000000
 
ion      s      p      d    tot
    1  0.000  0.064  0.000  0.064
    2  0.000  0.556  0.000  0.556
tot    0.000  0.620  0.000  0.620
 
band     5 # energy   13.23653006 # occ.  0.00000000
 
ion      s      p      d    tot
    1  0.184  0.047  0.000  0.231
    2  0.138  0.049  0.000  0.187
tot    0.322  0.096  0.000  0.418
 
band     6 # energy   14.69501305 # occ.  0.00000000
 
ion      s      p      d    tot
    1  0.018  0.065  0.000  0.082
    2  0.013  0.224  0.000  0.237
tot    0.031  0.288  0.000  0.319
 
band     7 # energy   17.05514542 # occ.  0.00000000
 
ion      s      p      d    tot
    1  0.000  0.218  0.000  0.218
    2  0.000  0.019  0.000  0.019
tot    0.000  0.237  0.000  0.237
 
band     8 # energy   17.29442374 # occ.  0.00000000
 
ion      s      p      d    tot
    1  0.041  0.141  0.000  0.181
    2  0.001  0.192  0.000  0.193
tot    0.041  0.332  0.000  0.374
 

 k-point    14 :   -0.41666667 0.08333333 0.00000000     weight = 0.01388889

band     1 # energy   -7.14387131 # occ.  2.00000000
 
ion      s      p      d    tot
    1  0.038  0.031  0.000  0.069
    2  0.580  0.001  0.000  0.581
tot    0.618  0.032  0.000  0.650
 
band     2 # energy    0.25586501 # occ.  2.00000000
 
ion      s      p      d    tot
    1  0.112  0.059  0.000  0.170
    2  0.009  0.275  0.000  0.283
tot    0.120  0.333  0.000  0.454
 
band     3 # energy    4.87891220 # occ.  2.00000000
 
ion      s      p      d    tot
    1  0.015  0.059  0.000  0.074
    2  0.005  0.525  0.000  0.530
tot    0.020  0.584  0.000  0.605
 
band     4 # energy    5.26855094 # occ.  2.00000000
 
ion      s      p      d    tot
    1  0.000  0.060  0.000  0.060
    2  0.000  0.564  0.000  0.564
tot    0.000  0.624  0.000  0.624
 
band     5 # energy   13.24930161 # occ.  0.00000000
 
ion      s      p      d    tot
    1  0.179  0.045  0.000  0.224
    2  0.142  0.062  0.000  0.205
tot    0.321  0.108  0.000  0.429
 
band     6 # energy   14.76719678 # occ.  0.00000000
 
ion      s      p      d    tot
    1  0.019  0.069  0.000  0.088
    2  0.011  0.221  0.000  0.233
tot    0.030  0.290  0.000  0.321
 
band     7 # energy   17.00868830 # occ.  0.00000000
 
ion      s      p      d    tot
    1  0.000  0.216  0.000  0.216
    2  0.000  0.010  0.000  0.010
tot    0.000  0.226  0.000  0.226
 
band     8 # energy   17.33212963 # occ.  0.00000000
 
ion      s      p      d    tot
    1  0.045  0.144  0.000  0.189
    2  0.001  0.189  0.000  0.189
tot    0.046  0.333  0.000  0.379
 

 k-point    15 :   -0.33333333 0.08333333 0.00000000     weight = 0.01388889

band     1 # energy   -7.52072194 # occ.  2.00000000
 
ion      s      p      d    tot
    1  0.056  0.026  0.000  0.082
    2  0.547  0.003  0.000  0.549
tot    0.602  0.029  0.000  0.631
 
band     2 # energy    0.98317722 # occ.  2.00000000
 
ion      s      p      d    tot
    1  0.093  0.055  0.000  0.148
    2  0.039  0.290  0.000  0.329
tot    0.132  0.345  0.000  0.477
 
band     3 # energy    4.89213826 # occ.  2.00000000
 
ion      s      p      d    tot
    1  0.013  0.059  0.000  0.072
    2  0.005  0.525  0.000  0.529
tot    0.018  0.584  0.000  0.602
 
band     4 # energy    5.40752271 # occ.  2.00000000
 
ion      s      p      d    tot
    1  0.000  0.052  0.000  0.052
    2  0.000  0.574  0.000  0.574
tot    0.000  0.626  0.000  0.626
 
band     5 # energy   12.98812586 # occ.  0.00000000
 
ion      s      p      d    tot
    1  0.122  0.053  0.000  0.175
    2  0.149  0.129  0.000  0.278
tot    0.271  0.182  0.000  0.453
 
band     6 # energy   15.31905601 # occ.  0.00000000
 
ion      s      p      d    tot
    1  0.064  0.081  0.000  0.145
    2  0.015  0.183  0.000  0.198
tot    0.079  0.265  0.000  0.344
 
band     7 # energy   17.25847963 # occ.  0.00000000
 
ion      s      p      d    tot
    1  0.000  0.225  0.000  0.225
    2  0.000  0.005  0.000  0.005
tot    0.000  0.230  0.000  0.230
 
band     8 # energy   17.36293218 # occ.  0.00000000
 
ion      s      p      d    tot
    1  0.058  0.162  0.000  0.221
    2  0.002  0.151  0.000  0.153
tot    0.061  0.313  0.000  0.374
 

 k-point    16 :   -0.25000000 0.08333333-0.00000000     weight = 0.01388889

band     1 # energy   -8.02453570 # occ.  2.00000000
 
ion      s      p      d    tot
    1  0.077  0.018  0.000  0.095
    2  0.512  0.003  0.000  0.515
tot    0.589  0.021  0.000  0.610
 
band     2 # energy    2.10101532 # occ.  2.00000000
 
ion      s      p      d    tot
    1  0.071  0.046  0.000  0.118
    2  0.067  0.322  0.000  0.389
tot    0.138  0.369  0.000  0.507
 
band     3 # energy    4.99806244 # occ.  2.00000000
 
ion      s      p      d    tot
    1  0.010  0.055  0.000  0.065
    2  0.003  0.532  0.000  0.535
tot    0.013  0.587  0.000  0.600
 
band     4 # energy    5.55993109 # occ.  2.00000000
 
ion      s      p      d    tot
    1  0.000  0.041  0.000  0.041
    2  0.000  0.585  0.000  0.585
tot    0.000  0.626  0.000  0.626
 
band     5 # energy   12.49084746 # occ.  0.00000000
 
ion      s      p      d    tot
    1  0.081  0.052  0.000  0.134
    2  0.172  0.181  0.000  0.353
tot    0.254  0.233  0.000  0.487
 
band     6 # energy   16.12106130 # occ.  0.00000000
 
ion      s      p      d    tot
    1  0.107  0.115  0.000  0.222
    2  0.012  0.155  0.000  0.167
tot    0.119  0.269  0.000  0.388
 
band     7 # energy   17.46151405 # occ.  0.00000000
 
ion      s      p      d    tot
    1  0.050  0.202  0.000  0.253
    2  0.004  0.087  0.000  0.091
tot    0.054  0.290  0.000  0.344
 
band     8 # energy   17.77378220 # occ.  0.00000000
 
ion      s      p      d    tot
    1  0.000  0.260  0.000  0.260
    2  0.000  0.004  0.000  0.004
tot    0.000  0.264  0.000  0.264
 

 k-point    17 :   -0.16666667 0.08333333 0.00000000     weight = 0.01388889

band     1 # energy   -8.49301136 # occ.  2.00000000
 
ion      s      p      d    tot
    1  0.094  0.010  0.000  0.105
    2  0.487  0.002  0.000  0.489
tot    0.581  0.013  0.000  0.594
 
band     2 # energy    3.36760788 # occ.  2.00000000
 
ion      s      p      d    tot
    1  0.052  0.034  0.000  0.086
    2  0.077  0.374  0.000  0.451
tot    0.128  0.408  0.000  0.537
 
band     3 # energy    5.18909478 # occ.  2.00000000
 
ion      s      p      d    tot
    1  0.006  0.048  0.000  0.054
    2  0.001  0.546  0.000  0.547
tot    0.007  0.594  0.000  0.601
 
band     4 # energy    5.68599619 # occ.  2.00000000
 
ion      s      p      d    tot
    1  0.000  0.031  0.000  0.031
    2  0.000  0.594  0.000  0.594
tot    0.000  0.624  0.000  0.624
 
band     5 # energy   11.73674729 # occ.  0.00000000
 
ion      s      p      d    tot
    1  0.074  0.038  0.000  0.112
    2  0.209  0.187  0.000  0.396
tot    0.283  0.225  0.000  0.508
 
band     6 # energy   16.89997372 # occ.  0.00000000
 
ion      s      p      d    tot
    1  0.131  0.195  0.000  0.325
    2  0.005  0.105  0.000  0.110
tot    0.135  0.299  0.000  0.435
 
band     7 # energy   17.80404407 # occ.  0.00000000
 
ion      s      p      d    tot
    1  0.010  0.263  0.000  0.273
    2  0.005  0.055  0.000  0.060
tot    0.014  0.318  0.000  0.333
 
band     8 # energy   18.31884461 # occ.  0.00000000
 
ion      s      p      d    tot
    1  0.000  0.371  0.000  0.371
    2  0.000  0.004  0.000  0.004
tot    0.000  0.375  0.000  0.375
 

 k-point    18 :   -0.08333333 0.08333333 0.00000000     weight = 0.00694444

band     1 # energy   -8.83188016 # occ.  2.00000000
 
ion      s      p      d    tot
    1  0.106  0.005  0.000  0.111
    2  0.472  0.001  0.000  0.473
tot    0.578  0.006  0.000  0.584
 
band     2 # energy    4.51189068 # occ.  2.00000000
 
ion      s      p      d    tot
    1  0.033  0.024  0.000  0.057
    2  0.063  0.447  0.000  0.509
tot    0.096  0.470  0.000  0.566
 
band     3 # energy    5.45543489 # occ.  2.00000000
 
ion      s      p      d    tot
    1  0.002  0.036  0.000  0.038
    2  0.000  0.569  0.000  0.569
tot    0.002  0.605  0.000  0.607
 
band     4 # energy    5.74707122 # occ.  2.00000000
 
ion      s      p      d    tot
    1  0.000  0.023  0.000  0.023
    2  0.000  0.597  0.000  0.597
tot    0.000  0.620  0.000  0.620
 
band     5 # energy   10.85694941 # occ.  0.00000000
 
ion      s      p      d    tot
    1  0.090  0.019  0.000  0.109
    2  0.256  0.139  0.000  0.394
tot    0.346  0.158  0.000  0.504
 
band     6 # energy   17.46066170 # occ.  0.00000000
 
ion      s      p      d    tot
    1  0.084  0.300  0.000  0.383
    2  0.001  0.045  0.000  0.046
tot    0.085  0.344  0.000  0.430
 
band     7 # energy   18.19505034 # occ.  0.00000000
 
ion      s      p      d    tot
    1  0.000  0.354  0.000  0.354
    2  0.001  0.045  0.000  0.047
tot    0.001  0.399  0.000  0.400
 
band     8 # energy   18.32660108 # occ.  0.00000000
 
ion      s      p      d    tot
    1  0.000  0.431  0.000  0.431
    2  0.000  0.001  0.000  0.001
tot    0.000  0.432  0.000  0.432
 

 k-point    19 :    0.16666667 0.16666667-0.00000000     weight = 0.00347222

band     1 # energy   -8.57893234 # occ.  2.00000000
 
ion      s      p      d    tot
    1  0.097  0.009  0.000  0.106
    2  0.482  0.002  0.000  0.485
tot    0.580  0.011  0.000  0.591
 
band     2 # energy    4.03200730 # occ.  2.00000000
 
ion      s      p      d    tot
    1  0.055  0.010  0.000  0.065
    2  0.087  0.406  0.000  0.493
tot    0.142  0.415  0.000  0.557
 
band     3 # energy    5.24599845 # occ.  2.00000000
 
ion      s      p      d    tot
    1  0.000  0.050  0.000  0.050
    2  0.000  0.553  0.000  0.553
tot    0.000  0.604  0.000  0.604
 
band     4 # energy    5.24599866 # occ.  2.00000000
 
ion      s      p      d    tot
    1  0.000  0.050  0.000  0.050
    2  0.000  0.553  0.000  0.553
tot    0.000  0.604  0.000  0.604
 
band     5 # energy   11.47771460 # occ.  0.00000000
 
ion      s      p      d    tot
    1  0.057  0.044  0.000  0.101