<?xml version="1.0" encoding="ISO-8859-1"?>
<modeling>
 <generator>
  <i name="program" type="string">vasp </i>
  <i name="version" type="string">5.4.4.18Apr17-6-g9f103f2a35  </i>
  <i name="subversion" type="string">(build Apr 10 2018 17:34:00) complex            parallel </i>
  <i name="platform" type="string">LinuxIFC </i>
  <i name="date" type="string">2018 10 04 </i>
  <i name="time" type="string">08:03:55 </i>
 </generator>
 <incar>
  <i type="string" name="SYSTEM"> AlN</i>
  <i type="string" name="PREC">accurate  ! calcululation level (change</i>
  <i type="string" name="ALGO"> NORMAL    ! A Davidson blocked iteratio</i>
  <i type="logical" name="ADDGRID"> T  </i>
  <i type="int" name="ISPIN">     1</i>
  <i name="AMIX">      0.20000000</i>
  <i name="BMIX">      0.00100000</i>
  <i type="int" name="NELM">   100</i>
  <i type="int" name="NELMDL">    -8</i>
  <i type="int" name="NELMIN">     6</i>
  <i type="int" name="IBRION">     2</i>
  <i name="EDIFF">      0.00000010</i>
  <i name="EDIFFG">     -0.00100000</i>
  <i type="int" name="NSW">   100</i>
  <i type="int" name="ISIF">     3</i>
  <i name="ENCUT">    800.00000000</i>
  <i name="POTIM">      0.50000000</i>
  <i type="int" name="NEDOS">    11</i>
  <i type="logical" name="LREAL"> F  </i>
  <i type="logical" name="LPLANE"> T  </i>
  <i type="int" name="ISMEAR">     0</i>
  <i name="SIGMA">      0.01000000</i>
  <i type="int" name="NWRITE">     1</i>
  <i type="int" name="LMAXMIX">     6</i>
  <i type="logical" name="LWAVE"> F  </i>
  <i type="logical" name="LCHARG"> F  </i>
  <i type="int" name="LORBIT">    10</i>
  <i type="logical" name="LASPH"> T  </i>
  <v type="int" name="KPOINT_BSE">    -1     0     0     0</v>
  <i type="int" name="NELM">   100</i>
  <i type="logical" name="LASPH"> T  </i>
 </incar>
 <structure name="primitive_cell" >
  <crystal>
   <varray name="basis" >
    <v>       0.00000000       2.20063430       2.20063430 </v>
    <v>       2.20063430       0.00000000       2.20063430 </v>
    <v>       2.20063430       2.20063430       0.00000000 </v>
   </varray>
   <i name="volume">     21.31442524 </i>
   <varray name="rec_basis" >
    <v>      -0.22720722       0.22720722       0.22720722 </v>
    <v>       0.22720722      -0.22720722       0.22720722 </v>
    <v>       0.22720722       0.22720722      -0.22720722 </v>
   </varray>
  </crystal>
  <varray name="positions" >
   <v>       0.00000000       0.00000000       0.00000000 </v>
   <v>       0.25000000       0.25000000       0.25000000 </v>
  </varray>
 </structure>
 <varray name="primitive_index" >
  <v type="int" >        1 </v>
  <v type="int" >        2 </v>
 </varray>
 <kpoints>
  <generation param="Auto">
   <i name="subdivisionlength">     30.00000000 </i>
   <v type="int" name="divisions">      12       12       12 </v>
   <v name="usershift">      0.00000000       0.00000000       0.00000000 </v>
   <v name="genvec1">      0.08333333       0.00000000      -0.00000000 </v>
   <v name="genvec2">      0.00000000       0.08333333       0.00000000 </v>
   <v name="genvec3">     -0.00000000      -0.00000000       0.08333333 </v>
   <v name="shift">      0.00000000       0.00000000       0.00000000 </v>
  </generation>
  <varray name="kpointlist" >
   <v>       0.00000000       0.00000000       0.00000000 </v>
   <v>       0.08333333       0.00000000      -0.00000000 </v>
   <v>       0.16666667       0.00000000      -0.00000000 </v>
   <v>       0.25000000       0.00000000      -0.00000000 </v>
   <v>       0.33333333      -0.00000000       0.00000000 </v>
   <v>       0.41666667      -0.00000000       0.00000000 </v>
   <v>       0.50000000       0.00000000      -0.00000000 </v>
   <v>       0.08333333       0.08333333      -0.00000000 </v>
   <v>       0.16666667       0.08333333      -0.00000000 </v>
   <v>       0.25000000       0.08333333      -0.00000000 </v>
   <v>       0.33333333       0.08333333       0.00000000 </v>
   <v>       0.41666667       0.08333333      -0.00000000 </v>
   <v>       0.50000000       0.08333333       0.00000000 </v>
   <v>      -0.41666667       0.08333333       0.00000000 </v>
   <v>      -0.33333333       0.08333333       0.00000000 </v>
   <v>      -0.25000000       0.08333333      -0.00000000 </v>
   <v>      -0.16666667       0.08333333       0.00000000 </v>
   <v>      -0.08333333       0.08333333       0.00000000 </v>
   <v>       0.16666667       0.16666667      -0.00000000 </v>
   <v>       0.25000000       0.16666667      -0.00000000 </v>
   <v>       0.33333333       0.16666667      -0.00000000 </v>
   <v>       0.41666667       0.16666667       0.00000000 </v>
   <v>       0.50000000       0.16666667       0.00000000 </v>
   <v>      -0.41666667       0.16666667      -0.00000000 </v>
   <v>      -0.33333333       0.16666667       0.00000000 </v>
   <v>      -0.25000000       0.16666667      -0.00000000 </v>
   <v>      -0.16666667       0.16666667       0.00000000 </v>
   <v>       0.25000000       0.25000000      -0.00000000 </v>
   <v>       0.33333333       0.25000000      -0.00000000 </v>
   <v>       0.41666667       0.25000000      -0.00000000 </v>
   <v>       0.50000000       0.25000000       0.00000000 </v>
   <v>      -0.41666667       0.25000000      -0.00000000 </v>
   <v>      -0.33333333       0.25000000      -0.00000000 </v>
   <v>      -0.25000000       0.25000000       0.00000000 </v>
   <v>       0.33333333       0.33333333      -0.00000000 </v>
   <v>       0.41666667       0.33333333      -0.00000000 </v>
   <v>       0.50000000       0.33333333      -0.00000000 </v>
   <v>      -0.41666667       0.33333333      -0.00000000 </v>
   <v>      -0.33333333       0.33333333      -0.00000000 </v>
   <v>       0.41666667       0.41666667      -0.00000000 </v>
   <v>       0.50000000       0.41666667      -0.00000000 </v>
   <v>      -0.41666667       0.41666667      -0.00000000 </v>
   <v>       0.50000000       0.50000000      -0.00000000 </v>
   <v>       0.25000000       0.16666667       0.08333333 </v>
   <v>       0.33333333       0.16666667       0.08333333 </v>
   <v>       0.41666667       0.16666667       0.08333333 </v>
   <v>       0.50000000       0.16666667       0.08333333 </v>
   <v>      -0.41666667       0.16666667       0.08333333 </v>
   <v>       0.33333333       0.25000000       0.08333333 </v>
   <v>       0.41666667       0.25000000       0.08333333 </v>
   <v>       0.50000000       0.25000000       0.08333333 </v>
   <v>      -0.41666667       0.25000000       0.08333333 </v>
   <v>      -0.33333333       0.25000000       0.08333333 </v>
   <v>      -0.25000000       0.25000000       0.08333333 </v>
   <v>      -0.16666667       0.25000000       0.08333333 </v>
   <v>       0.41666667       0.33333333       0.08333333 </v>
   <v>       0.50000000       0.33333333       0.08333333 </v>
   <v>      -0.41666667       0.33333333       0.08333333 </v>
   <v>      -0.33333333       0.33333333       0.08333333 </v>
   <v>      -0.25000000       0.33333333       0.08333333 </v>
   <v>       0.50000000       0.41666667       0.08333333 </v>
   <v>      -0.41666667       0.41666667       0.08333333 </v>
   <v>      -0.33333333       0.41666667       0.08333333 </v>
   <v>      -0.41666667       0.50000000       0.08333333 </v>
   <v>       0.50000000       0.33333333       0.16666667 </v>
   <v>      -0.41666667       0.33333333       0.16666667 </v>
   <v>      -0.33333333       0.33333333       0.16666667 </v>
   <v>      -0.41666667       0.41666667       0.16666667 </v>
   <v>      -0.33333333       0.41666667       0.16666667 </v>
   <v>      -0.25000000       0.41666667       0.16666667 </v>
   <v>      -0.33333333       0.50000000       0.16666667 </v>
   <v>      -0.25000000       0.50000000       0.25000000 </v>
  </varray>
  <varray name="weights" >
   <v>       0.00057870 </v>
   <v>       0.00462963 </v>
   <v>       0.00462963 </v>
   <v>       0.00462963 </v>
   <v>       0.00462963 </v>
   <v>       0.00462963 </v>
   <v>       0.00231481 </v>
   <v>       0.00347222 </v>
   <v>       0.01388889 </v>
   <v>       0.01388889 </v>
   <v>       0.01388889 </v>
   <v>       0.01388889 </v>
   <v>       0.01388889 </v>
   <v>       0.01388889 </v>
   <v>       0.01388889 </v>
   <v>       0.01388889 </v>
   <v>       0.01388889 </v>
   <v>       0.00694444 </v>
   <v>       0.00347222 </v>
   <v>       0.01388889 </v>
   <v>       0.01388889 </v>
   <v>       0.01388889 </v>
   <v>       0.01388889 </v>
   <v>       0.01388889 </v>
   <v>       0.01388889 </v>
   <v>       0.01388889 </v>
   <v>       0.00694444 </v>
   <v>       0.00347222 </v>
   <v>       0.01388889 </v>
   <v>       0.01388889 </v>
   <v>       0.01388889 </v>
   <v>       0.01388889 </v>
   <v>       0.01388889 </v>
   <v>       0.00694444 </v>
   <v>       0.00347222 </v>
   <v>       0.01388889 </v>
   <v>       0.01388889 </v>
   <v>       0.01388889 </v>
   <v>       0.00694444 </v>
   <v>       0.00347222 </v>
   <v>       0.01388889 </v>
   <v>       0.00694444 </v>
   <v>       0.00173611 </v>
   <v>       0.01388889 </v>
   <v>       0.02777778 </v>
   <v>       0.02777778 </v>
   <v>       0.02777778 </v>
   <v>       0.01388889 </v>
   <v>       0.01388889 </v>
   <v>       0.02777778 </v>
   <v>       0.02777778 </v>
   <v>       0.02777778 </v>
   <v>       0.02777778 </v>
   <v>       0.02777778 </v>
   <v>       0.01388889 </v>
   <v>       0.01388889 </v>
   <v>       0.02777778 </v>
   <v>       0.02777778 </v>
   <v>       0.02777778 </v>
   <v>       0.01388889 </v>
   <v>       0.01388889 </v>
   <v>       0.02777778 </v>
   <v>       0.01388889 </v>
   <v>       0.00694444 </v>
   <v>       0.01388889 </v>
   <v>       0.02777778 </v>
   <v>       0.01388889 </v>
   <v>       0.01388889 </v>
   <v>       0.02777778 </v>
   <v>       0.01388889 </v>
   <v>       0.00694444 </v>
   <v>       0.00347222 </v>
  </varray>
 </kpoints>
 <parameters>
  <separator name="general" >
   <i type="string" name="SYSTEM">AlN</i>
   <i type="logical" name="LCOMPAT"> F  </i>
  </separator>
  <separator name="electronic" >
   <i type="string" name="PREC">accura</i>
   <i name="ENMAX">    800.00000000</i>
   <i name="ENAUG">    627.11200000</i>
   <i name="EDIFF">      0.00000010</i>
   <i type="int" name="IALGO">    38</i>
   <i type="int" name="IWAVPR">    11</i>
   <i type="int" name="NBANDS">     8</i>
   <i name="NELECT">      8.00000000</i>
   <i type="int" name="TURBO">     0</i>
   <i type="int" name="IRESTART">     0</i>
   <i type="int" name="NREBOOT">     0</i>
   <i type="int" name="NMIN">     0</i>
   <i name="EREF">      0.00000000</i>
   <separator name="electronic smearing" >
    <i type="int" name="ISMEAR">     0</i>
    <i name="SIGMA">      0.01000000</i>
    <i name="KSPACING">      0.50000000</i>
    <i type="logical" name="KGAMMA"> T  </i>
   </separator>
   <separator name="electronic projectors" >
    <i type="logical" name="LREAL"> F  </i>
    <v name="ROPT">      0.00000000      0.00000000</v>
    <i type="int" name="LMAXPAW">  -100</i>
    <i type="int" name="LMAXMIX">     6</i>
    <i type="logical" name="NLSPLINE"> F  </i>
   </separator>
   <separator name="electronic startup" >
    <i type="int" name="ISTART">     0</i>
    <i type="int" name="ICHARG">     2</i>
    <i type="int" name="INIWAV">     1</i>
   </separator>
   <separator name="electronic spin" >
    <i type="int" name="ISPIN">     1</i>
    <i type="logical" name="LNONCOLLINEAR"> F  </i>
    <v name="MAGMOM">      1.00000000      1.00000000</v>
    <i name="NUPDOWN">     -1.00000000</i>
    <i type="logical" name="LSORBIT"> F  </i>
    <v name="SAXIS">      0.00000000      0.00000000      1.00000000</v>
    <i type="logical" name="LSPIRAL"> F  </i>
    <v name="QSPIRAL">      0.00000000      0.00000000      0.00000000</v>
    <i type="logical" name="LZEROZ"> F  </i>
   </separator>
   <separator name="electronic exchange-correlation" >
    <i type="logical" name="LASPH"> T  </i>
    <i type="logical" name="LMETAGGA"> F  </i>
   </separator>
   <separator name="electronic convergence" >
    <i type="int" name="NELM">   100</i>
    <i type="int" name="NELMDL">    -8</i>
    <i type="int" name="NELMIN">     6</i>
    <i name="ENINI">    800.00000000</i>
    <separator name="electronic convergence detail" >
     <i type="logical" name="LDIAG"> T  </i>
     <i type="logical" name="LSUBROT"> F  </i>
     <i name="WEIMIN">      0.00100000</i>
     <i name="EBREAK">      0.00000000</i>
     <i name="DEPER">      0.30000000</i>
     <i type="int" name="NRMM">     4</i>
     <i name="TIME">      0.40000000</i>
    </separator>
   </separator>
   <separator name="electronic mixer" >
    <i name="AMIX">      0.20000000</i>
    <i name="BMIX">      0.00100000</i>
    <i name="AMIN">      0.10000000</i>
    <i name="AMIX_MAG">      0.80000000</i>
    <i name="BMIX_MAG">      0.00100000</i>
    <separator name="electronic mixer details" >
     <i type="int" name="IMIX">     4</i>
     <i type="logical" name="MIXFIRST"> F  </i>
     <i type="int" name="MAXMIX">   -45</i>
     <i name="WC">    100.00000000</i>
     <i type="int" name="INIMIX">     1</i>
     <i type="int" name="MIXPRE">     1</i>
     <i type="int" name="MREMOVE">     5</i>
    </separator>
   </separator>
   <separator name="electronic dipolcorrection" >
    <i type="logical" name="LDIPOL"> F  </i>
    <i type="logical" name="LMONO"> F  </i>
    <i type="int" name="IDIPOL">     0</i>
    <i name="EPSILON">      1.00000000</i>
    <v name="DIPOL">   -100.00000000   -100.00000000   -100.00000000</v>
    <i name="EFIELD">      0.00000000</i>
   </separator>
  </separator>
  <separator name="grids" >
   <i type="int" name="NGX">    30</i>
   <i type="int" name="NGY">    30</i>
   <i type="int" name="NGZ">    30</i>
   <i type="int" name="NGXF">    60</i>
   <i type="int" name="NGYF">    60</i>
   <i type="int" name="NGZF">    60</i>
   <i type="logical" name="ADDGRID"> T  </i>
  </separator>
  <separator name="ionic" >
   <i type="int" name="NSW">   100</i>
   <i type="int" name="IBRION">     2</i>
   <i type="int" name="MDALGO">     0</i>
   <i type="int" name="ISIF">     3</i>
   <i name="PSTRESS">      0.00000000</i>
   <i name="EDIFFG">     -0.00100000</i>
   <i type="int" name="NFREE">     1</i>
   <i name="POTIM">      0.50000000</i>
   <i name="SMASS">     -3.00000000</i>
   <i name="SCALEE">      1.00000000</i>
  </separator>
  <separator name="ionic md" >
   <i name="TEBEG">      0.00010000</i>
   <i name="TEEND">      0.00010000</i>
   <i type="int" name="NBLOCK">     1</i>
   <i type="int" name="KBLOCK">   100</i>
   <i type="int" name="NPACO">   256</i>
   <i name="APACO">     16.00000000</i>
  </separator>
  <separator name="symmetry" >
   <i type="int" name="ISYM">     2</i>
   <i name="SYMPREC">      0.00001000</i>
  </separator>
  <separator name="dos" >
   <i type="int" name="LORBIT">    10</i>
   <v name="RWIGS">     -1.00000000     -1.00000000</v>
   <i type="int" name="NEDOS">    11</i>
   <i name="EMIN">     10.00000000</i>
   <i name="EMAX">    -10.00000000</i>
   <i name="EFERMI">      0.00000000</i>
  </separator>
  <separator name="writing" >
   <i type="int" name="NWRITE">     1</i>
   <i type="logical" name="LWAVE"> F  </i>
   <i type="logical" name="LDOWNSAMPLE"> F  </i>
   <i type="logical" name="LCHARG"> F  </i>
   <i type="logical" name="LPARD"> F  </i>
   <i type="logical" name="LVTOT"> F  </i>
   <i type="logical" name="LVHAR"> F  </i>
   <i type="logical" name="LELF"> F  </i>
   <i type="logical" name="LOPTICS"> F  </i>
   <v name="STM">      0.00000000      0.00000000      0.00000000      0.00000000      0.00000000      0.00000000      0.00000000</v>
  </separator>
  <separator name="performance" >
   <i type="int" name="NPAR">     2</i>
   <i type="int" name="NSIM">     4</i>
   <i type="int" name="NBLK">    -1</i>
   <i type="logical" name="LPLANE"> T  </i>
   <i type="logical" name="LSCALAPACK"> T  </i>
   <i type="logical" name="LSCAAWARE"> F  </i>
   <i type="logical" name="LSCALU"> F  </i>
   <i type="logical" name="LASYNC"> F  </i>
   <i type="logical" name="LORBITALREAL"> F  </i>
  </separator>
  <separator name="miscellaneous" >
   <i type="int" name="IDIOT">     3</i>
   <i type="int" name="ISPECIAL">     0</i>
   <i type="logical" name="LMUSIC"> F  </i>
   <v name="POMASS">     26.98100000     14.00100000</v>
   <v name="DARWINR">      0.00000000      0.00000000</v>
   <v name="DARWINV">      1.00000000      1.00000000</v>
   <i type="logical" name="LCORR"> T  </i>
  </separator>
  <i type="logical" name="GGA_COMPAT"> T  </i>
  <i type="logical" name="LBERRY"> F  </i>
  <i type="int" name="ICORELEVEL">     0</i>
  <i type="logical" name="LDAU"> F  </i>
  <i type="int" name="I_CONSTRAINED_M">     0</i>
  <separator name="electronic exchange-correlation" >
   <i type="string" name="GGA">--</i>
   <i type="int" name="VOSKOWN">     0</i>
   <i type="logical" name="LHFCALC"> F  </i>
   <i type="string" name="PRECFOCK"></i>
   <i type="logical" name="LSYMGRAD"> F  </i>
   <i type="logical" name="LHFONE"> F  </i>
   <i type="logical" name="LRHFCALC"> F  </i>
   <i type="logical" name="LTHOMAS"> F  </i>
   <i type="logical" name="LMODELHF"> F  </i>
   <i name="ENCUT4O">     -1.00000000</i>
   <i type="int" name="EXXOEP">     0</i>
   <i type="int" name="FOURORBIT">     0</i>
   <i name="AEXX">      0.00000000</i>
   <i name="HFALPHA">      0.00000000</i>
   <i name="MCALPHA">      0.00000000</i>
   <i name="ALDAX">      1.00000000</i>
   <i name="AGGAX">      1.00000000</i>
   <i name="ALDAC">      1.00000000</i>
   <i name="AGGAC">      1.00000000</i>
   <i type="int" name="NKREDX">     1</i>
   <i type="int" name="NKREDY">     1</i>
   <i type="int" name="NKREDZ">     1</i>
   <i type="logical" name="SHIFTRED"> F  </i>
   <i type="logical" name="ODDONLY"> F  </i>
   <i type="logical" name="EVENONLY"> F  </i>
   <i type="int" name="LMAXFOCK">     0</i>
   <i type="int" name="NMAXFOCKAE">     0</i>
   <i type="logical" name="LFOCKAEDFT"> F  </i>
   <i name="HFSCREEN">      0.00000000</i>
   <i name="HFSCREENC">      0.00000000</i>
   <i type="int" name="NBANDSGWLOW">     0</i>
  </separator>
  <separator name="vdW DFT" >
   <i type="logical" name="LUSE_VDW"> F  </i>
   <i name="Zab_VDW">     -0.84910000</i>
   <i name="PARAM1">      0.12340000</i>
   <i name="PARAM2">      1.00000000</i>
   <i name="PARAM3">      0.00000000</i>
  </separator>
  <separator name="model GW" >
   <i type="int" name="MODEL_GW">     0</i>
   <i name="MODEL_EPS0">      6.39432757</i>
   <i name="MODEL_ALPHA">      1.00000000</i>
  </separator>
  <separator name="linear response parameters" >
   <i type="logical" name="LEPSILON"> F  </i>
   <i type="logical" name="LRPA"> F  </i>
   <i type="logical" name="LNABLA"> F  </i>
   <i type="logical" name="LVEL"> F  </i>
   <i type="int" name="KINTER">     0</i>
   <i name="CSHIFT">      0.10000000</i>
   <i name="OMEGAMAX">     -1.00000000</i>
   <i name="DEG_THRESHOLD">      0.00200000</i>
   <i name="RTIME">     -0.10000000</i>
   <i name="WPLASMAI">      0.00000000</i>
   <v name="DFIELD">      0.00000000      0.00000000      0.00000000</v>
   <v name="WPLASMA">      0.00000000      0.00000000      0.00000000      0.00000000      0.00000000      0.00000000      0.00000000      0.00000000      0.00000000</v>
  </separator>
  <separator name="orbital magnetization" >
   <i type="logical" name="NUCIND"> F  </i>
   <v name="MAGPOS">      0.00000000      0.00000000      0.00000000</v>
   <i type="logical" name="LNICSALL"> T  </i>
   <i type="logical" name="ORBITALMAG"> F  </i>
   <i type="logical" name="LMAGBLOCH"> F  </i>
   <i type="logical" name="LCHIMAG"> F  </i>
   <i type="logical" name="LGAUGE"> T  </i>
   <i type="int" name="MAGATOM">     0</i>
   <v name="MAGDIPOL">      0.00000000      0.00000000      0.00000000</v>
   <v name="AVECCONST">      0.00000000      0.00000000      0.00000000</v>
  </separator>
  <separator name="response functions" >
   <i type="logical" name="LADDER"> F  </i>
   <i type="logical" name="LRPAFORCE"> F  </i>
   <i type="logical" name="LFXC"> F  </i>
   <i type="logical" name="LHARTREE"> T  </i>
   <i type="int" name="IBSE">     0</i>
   <v type="int" name="KPOINT">    -1     0     0     0</v>
   <i type="logical" name="LTCTE"> F  </i>
   <i type="logical" name="LTETE"> F  </i>
   <i type="logical" name="LTRIPLET"> F  </i>
   <i type="logical" name="LFXCEPS"> F  </i>
   <i type="logical" name="LFXHEG"> F  </i>
   <i type="int" name="NATURALO">     2</i>
   <i type="logical" name="L2ORDER"> F  </i>
   <i type="logical" name="LMP2LT"> F  </i>
   <i type="logical" name="LUSEW"> F  </i>
   <i name="ENCUTGW">     -2.00000000</i>
   <i name="ENCUTGWSOFT">     -2.00000000</i>
   <i name="ENCUTLF">     -1.00000000</i>
   <i type="int" name="LMAXMP2">    -1</i>
   <i name="SCISSOR">      0.00000000</i>
   <i type="int" name="NOMEGA">     0</i>
   <i type="int" name="NOMEGAR">     0</i>
   <i type="int" name="NBANDSGW">    -1</i>
   <i type="int" name="NBANDSO">    -1</i>
   <i type="int" name="NBANDSV">    -1</i>
   <i type="int" name="NELM">   100</i>
   <i type="int" name="NELMHF">     1</i>
   <i type="int" name="DIM">     3</i>
   <i type="int" name="ANTIRES">     0</i>
   <i name="OMEGAMAX">    -30.00000000</i>
   <i name="OMEGAMIN">    -30.00000000</i>
   <i name="OMEGATL">   -200.00000000</i>
   <i type="int" name="OMEGAGRID">   140</i>
   <i name="CSHIFT">     -0.10000000</i>
   <i type="logical" name="SELFENERGY"> F  </i>
   <i type="logical" name="LSPECTRAL"> F  </i>
   <i type="logical" name="LSPECTRALGW"> F  </i>
   <i type="logical" name="LSINGLES"> F  </i>
   <i type="logical" name="LFERMIGW"> F  </i>
   <i type="logical" name="ODDONLYGW"> F  </i>
   <i type="logical" name="EVENONLYGW"> F  </i>
   <i type="int" name="NKREDLFX">     1</i>
   <i type="int" name="NKREDLFY">     1</i>
   <i type="int" name="NKREDLFZ">     1</i>
   <i type="int" name="MAXMEM">  2800</i>
   <i type="int" name="TELESCOPE">     0</i>
   <i type="int" name="TAUPAR">     1</i>
   <i type="int" name="OMEGAPAR">    -1</i>
   <i name="LAMBDA">      1.00000000</i>
  </separator>
  <separator name="External order field" >
   <i name="OFIELD_KAPPA">      0.00000000</i>
   <v name="OFIELD_K">      0.00000000      0.00000000      0.00000000</v>
   <i name="OFIELD_Q6_NEAR">      0.00000000</i>
   <i name="OFIELD_Q6_FAR">      0.00000000</i>
   <i name="OFIELD_A">      0.00000000</i>
  </separator>
 </parameters>
 <atominfo>
  <atoms>       2 </atoms>
  <types>       2 </types>
  <array name="atoms" >
   <dimension dim="1">ion</dimension>
   <field type="string">element</field>
   <field type="int">atomtype</field>
   <set>
    <rc><c>Al</c><c>   1</c></rc>
    <rc><c>N </c><c>   2</c></rc>
   </set>
  </array>
  <array name="atomtypes" >
   <dimension dim="1">type</dimension>
   <field type="int">atomspertype</field>
   <field type="string">element</field>
   <field>mass</field>
   <field>valence</field>
   <field type="string">pseudopotential</field>
   <set>
    <rc><c>   1</c><c>Al</c><c>     26.98100000</c><c>      3.00000000</c><c>  PAW_PBE Al 04Jan2001                  </c></rc>
    <rc><c>   1</c><c>N </c><c>     14.00100000</c><c>      5.00000000</c><c>  PAW_PBE N 08Apr2002                   </c></rc>
   </set>
  </array>
 </atominfo>
 <structure name="initialpos" >
  <crystal>
   <varray name="basis" >
    <v>       0.00000000       2.20063430       2.20063430 </v>
    <v>       2.20063430       0.00000000       2.20063430 </v>
    <v>       2.20063430       2.20063430       0.00000000 </v>
   </varray>
   <i name="volume">     21.31442524 </i>
   <varray name="rec_basis" >
    <v>      -0.22720722       0.22720722       0.22720722 </v>
    <v>       0.22720722      -0.22720722       0.22720722 </v>
    <v>       0.22720722       0.22720722      -0.22720722 </v>
   </varray>
  </crystal>
  <varray name="positions" >
   <v>       0.00000000       0.00000000       0.00000000 </v>
   <v>       0.25000000       0.25000000       0.25000000 </v>
  </varray>
 </structure>
 <calculation>
  <scstep>
   <time name="dav">    0.11    0.11</time>
   <time name="total">    0.17    0.17</time>
   <energy>
    <i name="alphaZ">      7.66789344 </i>
    <i name="ewald">   -294.36360076 </i>
    <i name="hartreedc">    -59.81596692 </i>
    <i name="XCdc">     -6.13555598 </i>
    <i name="pawpsdc">    271.13288874 </i>
    <i name="pawaedc">   -240.36933646 </i>
    <i name="eentropy">     -0.00006742 </i>
    <i name="bandstr">     27.09059336 </i>
    <i name="atom">    318.08432528 </i>
    <i name="e_fr_energy">     23.29117328 </i>
    <i name="e_wo_entrp">     23.29124070 </i>
    <i name="e_0_energy">     23.29120699 </i>
   </energy>
  </scstep>
  <scstep>
   <time name="dav">    0.15    0.15</time>
   <time name="total">    0.15    0.15</time>
   <energy>
    <i name="e_fr_energy">    -16.00919244 </i>
    <i name="e_wo_entrp">    -16.00919244 </i>
    <i name="e_0_energy">    -16.00919244 </i>
   </energy>
  </scstep>
  <scstep>
   <time name="dav">    0.13    0.13</time>
   <time name="total">    0.13    0.13</time>
   <energy>
    <i name="e_fr_energy">    -17.19149764 </i>
    <i name="e_wo_entrp">    -17.19149764 </i>
    <i name="e_0_energy">    -17.19149764 </i>
   </energy>
  </scstep>
  <scstep>
   <time name="dav">    0.17    0.17</time>
   <time name="total">    0.17    0.17</time>
   <energy>
    <i name="e_fr_energy">    -17.19589201 </i>
    <i name="e_wo_entrp">    -17.19589201 </i>
    <i name="e_0_energy">    -17.19589201 </i>
   </energy>
  </scstep>
  <scstep>
   <time name="dav">    0.14    0.14</time>
   <time name="total">    0.14    0.14</time>
   <energy>
    <i name="e_fr_energy">    -17.19589790 </i>
    <i name="e_wo_entrp">    -17.19589790 </i>
    <i name="e_0_energy">    -17.19589790 </i>
   </energy>
  </scstep>
  <scstep>
   <time name="dav">    0.17    0.17</time>
   <time name="total">    0.17    0.17</time>
   <energy>
    <i name="e_fr_energy">    -17.19589792 </i>
    <i name="e_wo_entrp">    -17.19589792 </i>
    <i name="e_0_energy">    -17.19589792 </i>
   </energy>
  </scstep>
  <scstep>
   <time name="dav">    0.14    0.14</time>
   <time name="total">    0.14    0.14</time>
   <energy>
    <i name="e_fr_energy">    -17.19589792 </i>
    <i name="e_wo_entrp">    -17.19589792 </i>
    <i name="e_0_energy">    -17.19589792 </i>
   </energy>
  </scstep>
  <scstep>
   <time name="dav">    0.14    0.14</time>
   <time name="total">    0.16    0.16</time>
   <energy>
    <i name="e_fr_energy">    -17.19589792 </i>
    <i name="e_wo_entrp">    -17.19589792 </i>
    <i name="e_0_energy">    -17.19589792 </i>
   </energy>
  </scstep>
  <scstep>
   <time name="dav">    0.13    0.13</time>
   <time name="total">    0.20    0.20</time>
   <energy>
    <i name="e_fr_energy">    -15.33100048 </i>
    <i name="e_wo_entrp">    -15.33100048 </i>
    <i name="e_0_energy">    -15.33100048 </i>
   </energy>
  </scstep>
  <scstep>
   <time name="dav">    0.15    0.15</time>
   <time name="total">    0.22    0.22</time>
   <energy>
    <i name="e_fr_energy">    -14.86097468 </i>
    <i name="e_wo_entrp">    -14.86097468 </i>
    <i name="e_0_energy">    -14.86097468 </i>
   </energy>
  </scstep>
  <scstep>
   <time name="dav">    0.12    0.12</time>
   <time name="total">    0.19    0.19</time>
   <energy>
    <i name="e_fr_energy">    -14.85449866 </i>
    <i name="e_wo_entrp">    -14.85449866 </i>
    <i name="e_0_energy">    -14.85449866 </i>
   </energy>
  </scstep>
  <scstep>
   <time name="dav">    0.13    0.13</time>
   <time name="total">    0.20    0.20</time>
   <energy>
    <i name="e_fr_energy">    -14.85320436 </i>
    <i name="e_wo_entrp">    -14.85320436 </i>
    <i name="e_0_energy">    -14.85320436 </i>
   </energy>
  </scstep>
  <scstep>
   <time name="dav">    0.13    0.13</time>
   <time name="total">    0.20    0.20</time>
   <energy>
    <i name="e_fr_energy">    -14.85320796 </i>
    <i name="e_wo_entrp">    -14.85320796 </i>
    <i name="e_0_energy">    -14.85320796 </i>
   </energy>
  </scstep>
  <scstep>
   <time name="dav">    0.12    0.12</time>
   <time name="total">    0.19    0.19</time>
   <energy>
    <i name="e_fr_energy">    -14.85329400 </i>
    <i name="e_wo_entrp">    -14.85329400 </i>
    <i name="e_0_energy">    -14.85329400 </i>
   </energy>
  </scstep>
  <scstep>
   <time name="dav">    0.15    0.15</time>
   <time name="total">    0.22    0.22</time>
   <energy>
    <i name="e_fr_energy">    -14.85328448 </i>
    <i name="e_wo_entrp">    -14.85328448 </i>
    <i name="e_0_energy">    -14.85328448 </i>
   </energy>
  </scstep>
  <scstep>
   <time name="dav">    0.14    0.14</time>
   <time name="total">    0.21    0.21</time>
   <energy>
    <i name="e_fr_energy">    -14.85328457 </i>
    <i name="e_wo_entrp">    -14.85328457 </i>
    <i name="e_0_energy">    -14.85328457 </i>
   </energy>
  </scstep>
  <scstep>
   <time name="dav">    0.12    0.12</time>
   <time name="total">    0.19    0.19</time>
   <energy>
    <i name="e_fr_energy">    -14.85328471 </i>
    <i name="e_wo_entrp">    -14.85328471 </i>
    <i name="e_0_energy">    -14.85328471 </i>
   </energy>
  </scstep>
  <scstep>
   <time name="dav">    0.08    0.08</time>
   <time name="total">    0.13    0.13</time>
   <energy>
    <i name="alphaZ">      7.66789344 </i>
    <i name="ewald">   -294.36360076 </i>
    <i name="hartreedc">    -77.98947449 </i>
    <i name="XCdc">     -4.67702248 </i>
    <i name="pawpsdc">    704.17150828 </i>
    <i name="pawaedc">   -673.69702217 </i>
    <i name="eentropy">      0.00000000 </i>
    <i name="bandstr">      5.95010823 </i>
    <i name="atom">    318.08432528 </i>
    <i name="e_fr_energy">    -14.85328467 </i>
    <i name="e_wo_entrp">    -14.85328467 </i>
    <i name="e_0_energy">    -14.85328467 </i>
   </energy>
  </scstep>
  <structure>
   <crystal>
    <varray name="basis" >
     <v>       0.00000000       2.20063430       2.20063430 </v>
     <v>       2.20063430       0.00000000       2.20063430 </v>
     <v>       2.20063430       2.20063430       0.00000000 </v>
    </varray>
    <i name="volume">     21.31442524 </i>
    <varray name="rec_basis" >
     <v>      -0.22720722       0.22720722       0.22720722 </v>
     <v>       0.22720722      -0.22720722       0.22720722 </v>
     <v>       0.22720722       0.22720722      -0.22720722 </v>
    </varray>
   </crystal>
   <varray name="positions" >
    <v>       0.00000000       0.00000000       0.00000000 </v>
    <v>       0.25000000       0.25000000       0.25000000 </v>
   </varray>
  </structure>
  <varray name="forces" >
   <v>       0.00000000       0.00000000       0.00000000 </v>
   <v>      -0.00000000      -0.00000000      -0.00000000 </v>
  </varray>
  <varray name="stress" >
   <v>      -0.03911399       0.00000000      -0.00000000 </v>
   <v>      -0.00000000      -0.03911399       0.00000000 </v>
   <v>      -0.00000000       0.00000000      -0.03911399 </v>
  </varray>
  <energy>
   <i name="e_fr_energy">    -14.85328467 </i>
   <i name="e_wo_entrp">    -14.85328467 </i>
   <i name="e_0_energy">      0.00000000 </i>
  </energy>
  <time name="totalsc">    3.64    3.64</time>
  <eigenvalues>
   <array>
    <dimension dim="1">band</dimension>
    <dimension dim="2">kpoint</dimension>
    <dimension dim="3">spin</dimension>
    <field>eigene</field>
    <field>occ</field>
    <set>
     <set comment="spin 1">
      <set comment="kpoint 1">
       <r>   -9.0932    1.0000 </r>
       <r>    5.7568    1.0000 </r>
       <r>    5.7568    1.0000 </r>
       <r>    5.7568    1.0000 </r>
       <r>    9.7551    0.0000 </r>
       <r>   18.0925    0.0000 </r>
       <r>   18.0925    0.0000 </r>
       <r>   18.0925    0.0000 </r>
      </set>
      <set comment="kpoint 2">
       <r>   -8.9939    1.0000 </r>
       <r>    5.1664    1.0000 </r>
       <r>    5.7206    1.0000 </r>
       <r>    5.7206    1.0000 </r>
       <r>   10.2458    0.0000 </r>
       <r>   17.8146    0.0000 </r>
       <r>   18.1917    0.0000 </r>
       <r>   18.1917    0.0000 </r>
      </set>
      <set comment="kpoint 3">
       <r>   -8.7065    1.0000 </r>
       <r>    3.9148    1.0000 </r>
       <r>    5.6251    1.0000 </r>
       <r>    5.6251    1.0000 </r>
       <r>   11.1835    0.0000 </r>
       <r>   17.1874    0.0000 </r>
       <r>   18.2637    0.0000 </r>
       <r>   18.2637    0.0000 </r>
      </set>
      <set comment="kpoint 4">
       <r>   -8.2668    1.0000 </r>
       <r>    2.5302    1.0000 </r>
       <r>    5.5023    1.0000 </r>
       <r>    5.5023    1.0000 </r>
       <r>   12.0211    0.0000 </r>
       <r>   16.5226    0.0000 </r>
       <r>   17.8964    0.0000 </r>
       <r>   17.8964    0.0000 </r>
      </set>
      <set comment="kpoint 5">
       <r>   -7.7509    1.0000 </r>
       <r>    1.2681    1.0000 </r>
       <r>    5.3874    1.0000 </r>
       <r>    5.3874    1.0000 </r>
       <r>   12.5709    0.0000 </r>
       <r>   15.9740    0.0000 </r>
       <r>   17.3280    0.0000 </r>
       <r>   17.3280    0.0000 </r>
      </set>
      <set comment="kpoint 6">
       <r>   -7.2995    1.0000 </r>
       <r>    0.3451    1.0000 </r>
       <r>    5.3076    1.0000 </r>
       <r>    5.3076    1.0000 </r>
       <r>   12.8489    0.0000 </r>
       <r>   15.6035    0.0000 </r>
       <r>   16.9088    0.0000 </r>
       <r>   16.9088    0.0000 </r>
      </set>
      <set comment="kpoint 7">
       <r>   -7.1115    1.0000 </r>
       <r>   -0.0037    1.0000 </r>
       <r>    5.2793    1.0000 </r>
       <r>    5.2793    1.0000 </r>
       <r>   12.9313    0.0000 </r>
       <r>   15.4691    0.0000 </r>
       <r>   16.7602    0.0000 </r>
       <r>   16.7602    0.0000 </r>
      </set>
      <set comment="kpoint 8">
       <r>   -8.9609    1.0000 </r>
       <r>    5.1683    1.0000 </r>
       <r>    5.6133    1.0000 </r>
       <r>    5.6133    1.0000 </r>
       <r>   10.3977    0.0000 </r>
       <r>   17.6462    0.0000 </r>
       <r>   18.2865    0.0000 </r>
       <r>   18.2865    0.0000 </r>
      </set>
      <set comment="kpoint 9">
       <r>   -8.7363    1.0000 </r>
       <r>    4.2376    1.0000 </r>
       <r>    5.4602    1.0000 </r>
       <r>    5.5472    1.0000 </r>
       <r>   11.1405    0.0000 </r>
       <r>   17.1655    0.0000 </r>
       <r>   18.2504    0.0000 </r>
       <r>   18.4619    0.0000 </r>
      </set>
      <set comment="kpoint 10">
       <r>   -8.3468    1.0000 </r>
       <r>    2.9623    1.0000 </r>
       <r>    5.3074    1.0000 </r>
       <r>    5.4389    1.0000 </r>
       <r>   11.9585    0.0000 </r>
       <r>   16.5690    0.0000 </r>
       <r>   17.6078    0.0000 </r>
       <r>   18.3404    0.0000 </r>
      </set>
      <set comment="kpoint 11">
       <r>   -7.8528    1.0000 </r>
       <r>    1.7020    1.0000 </r>
       <r>    5.1951    1.0000 </r>
       <r>    5.2722    1.0000 </r>
       <r>   12.5821    0.0000 </r>
       <r>   15.8025    0.0000 </r>
       <r>   17.2829    0.0000 </r>
       <r>   17.8699    0.0000 </r>
      </set>
      <set comment="kpoint 12">
       <r>   -7.3700    1.0000 </r>
       <r>    0.6831    1.0000 </r>
       <r>    5.0952    1.0000 </r>
       <r>    5.1483    1.0000 </r>
       <r>   12.9870    0.0000 </r>
       <r>   15.1060    0.0000 </r>
       <r>   17.2565    0.0000 </r>
       <r>   17.3709    0.0000 </r>
      </set>
      <set comment="kpoint 13">
       <r>   -7.0808    1.0000 </r>
       <r>    0.1411    1.0000 </r>
       <r>    4.9531    1.0000 </r>
       <r>    5.1752    1.0000 </r>
       <r>   13.2365    0.0000 </r>
       <r>   14.6950    0.0000 </r>
       <r>   17.0551    0.0000 </r>
       <r>   17.2944    0.0000 </r>
      </set>
      <set comment="kpoint 14">
       <r>   -7.1439    1.0000 </r>
       <r>    0.2559    1.0000 </r>
       <r>    4.8789    1.0000 </r>
       <r>    5.2686    1.0000 </r>
       <r>   13.2493    0.0000 </r>
       <r>   14.7672    0.0000 </r>
       <r>   17.0087    0.0000 </r>
       <r>   17.3321    0.0000 </r>
      </set>
      <set comment="kpoint 15">
       <r>   -7.5207    1.0000 </r>
       <r>    0.9832    1.0000 </r>
       <r>    4.8921    1.0000 </r>
       <r>    5.4075    1.0000 </r>
       <r>   12.9881    0.0000 </r>
       <r>   15.3191    0.0000 </r>
       <r>   17.2585    0.0000 </r>
       <r>   17.3629    0.0000 </r>
      </set>
      <set comment="kpoint 16">
       <r>   -8.0245    1.0000 </r>
       <r>    2.1010    1.0000 </r>
       <r>    4.9981    1.0000 </r>
       <r>    5.5599    1.0000 </r>
       <r>   12.4908    0.0000 </r>
       <r>   16.1211    0.0000 </r>
       <r>   17.4615    0.0000 </r>
       <r>   17.7738    0.0000 </r>
      </set>
      <set comment="kpoint 17">
       <r>   -8.4930    1.0000 </r>
       <r>    3.3676    1.0000 </r>
       <r>    5.1891    1.0000 </r>
       <r>    5.6860    1.0000 </r>
       <r>   11.7367    0.0000 </r>
       <r>   16.9000    0.0000 </r>
       <r>   17.8040    0.0000 </r>
       <r>   18.3188    0.0000 </r>
      </set>
      <set comment="kpoint 18">
       <r>   -8.8319    1.0000 </r>
       <r>    4.5119    1.0000 </r>
       <r>    5.4554    1.0000 </r>
       <r>    5.7471    1.0000 </r>
       <r>   10.8569    0.0000 </r>
       <r>   17.4607    0.0000 </r>
       <r>   18.1951    0.0000 </r>
       <r>   18.3266    0.0000 </r>
      </set>
      <set comment="kpoint 19">
       <r>   -8.5789    1.0000 </r>
       <r>    4.0320    1.0000 </r>
       <r>    5.2460    1.0000 </r>
       <r>    5.2460    1.0000 </r>
       <r>   11.4777    0.0000 </r>
       <r>   16.6902    0.0000 </r>
       <r>   18.2622    0.0000 </r>
       <r>   18.8083    0.0000 </r>
      </set>
      <set comment="kpoint 20">
       <r>   -8.2532    1.0000 </r>
       <r>    3.1786    1.0000 </r>
       <r>    5.0447    1.0000 </r>
       <r>    5.0684    1.0000 </r>
       <r>   11.9018    0.0000 </r>
       <r>   16.2978    0.0000 </r>
       <r>   17.1847    0.0000 </r>
       <r>   18.9793    0.0000 </r>
      </set>
      <set comment="kpoint 21">
       <r>   -7.8076    1.0000 </r>
       <r>    2.1223    1.0000 </r>
       <r>    4.8226    1.0000 </r>
       <r>    4.9054    1.0000 </r>
       <r>   12.2466    0.0000 </r>
       <r>   15.8614    0.0000 </r>
       <r>   16.8113    0.0000 </r>
       <r>   18.7439    0.0000 </r>
      </set>
      <set comment="kpoint 22">
       <r>   -7.3357    1.0000 </r>
       <r>    1.1643    1.0000 </r>
       <r>    4.5032    1.0000 </r>
       <r>    4.8572    1.0000 </r>
       <r>   12.5129    0.0000 </r>
       <r>   15.2482    0.0000 </r>
       <r>   17.1981    0.0000 </r>
       <r>   18.2831    0.0000 </r>
      </set>
      <set comment="kpoint 23">
       <r>   -6.9906    1.0000 </r>
       <r>    0.5415    1.0000 </r>
       <r>    4.2012    1.0000 </r>
       <r>    4.9085    1.0000 </r>
       <r>   12.8299    0.0000 </r>
       <r>   14.7411    0.0000 </r>
       <r>   17.6338    0.0000 </r>
       <r>   17.8639    0.0000 </r>
      </set>
      <set comment="kpoint 24">
       <r>   -6.9375    1.0000 </r>
       <r>    0.4540    1.0000 </r>
       <r>    3.9987    1.0000 </r>
       <r>    5.0484    1.0000 </r>
       <r>   13.2916    0.0000 </r>
       <r>   14.3768    0.0000 </r>
       <r>   17.6302    0.0000 </r>
       <r>   17.7196    0.0000 </r>
      </set>
      <set comment="kpoint 25">
       <r>   -7.2064    1.0000 </r>
       <r>    0.9245    1.0000 </r>
       <r>    3.9576    1.0000 </r>
       <r>    5.2473    1.0000 </r>
       <r>   13.6171    0.0000 </r>
       <r>   14.4189    0.0000 </r>
       <r>   17.4429    0.0000 </r>
       <r>   17.6431    0.0000 </r>
      </set>
      <set comment="kpoint 26">
       <r>   -7.6572    1.0000 </r>
       <r>    1.7503    1.0000 </r>
       <r>    4.1320    1.0000 </r>
       <r>    5.4581    1.0000 </r>
       <r>   13.2464    0.0000 </r>
       <r>   15.2854    0.0000 </r>
       <r>   17.0805    0.0000 </r>
       <r>   17.9067    0.0000 </r>
      </set>
      <set comment="kpoint 27">
       <r>   -8.1231    1.0000 </r>
       <r>    2.6370    1.0000 </r>
       <r>    4.5695    1.0000 </r>
       <r>    5.6222    1.0000 </r>
       <r>   12.5396    0.0000 </r>
       <r>   16.3790    0.0000 </r>
       <r>   17.0256    0.0000 </r>
       <r>   18.2791    0.0000 </r>
      </set>
      <set comment="kpoint 28">
       <r>   -7.9980    1.0000 </r>
       <r>    2.8873    1.0000 </r>
       <r>    4.7921    1.0000 </r>
       <r>    4.7921    1.0000 </r>
       <r>   11.6090    0.0000 </r>
       <r>   15.8197    0.0000 </r>
       <r>   17.0884    0.0000 </r>
       <r>   19.5305    0.0000 </r>
      </set>
      <set comment="kpoint 29">
       <r>   -7.6202    1.0000 </r>
       <r>    2.2271    1.0000 </r>
       <r>    4.5026    1.0000 </r>
       <r>    4.6101    1.0000 </r>
       <r>   11.3507    0.0000 </r>
       <r>   15.5533    0.0000 </r>
       <r>   17.0782    0.0000 </r>
       <r>   19.6779    0.0000 </r>
      </set>
      <set comment="kpoint 30">
       <r>   -7.1966    1.0000 </r>
       <r>    1.5405    1.0000 </r>
       <r>    4.0159    1.0000 </r>
       <r>    4.5346    1.0000 </r>
       <r>   11.3401    0.0000 </r>
       <r>   15.5711    0.0000 </r>
       <r>   17.1955    0.0000 </r>
       <r>   19.4101    0.0000 </r>
      </set>
      <set comment="kpoint 31">
       <r>   -6.8505    1.0000 </r>
       <r>    1.0520    1.0000 </r>
       <r>    3.4592    1.0000 </r>
       <r>    4.5785    1.0000 </r>
       <r>   11.5826    0.0000 </r>
       <r>   15.5576    0.0000 </r>
       <r>   17.6272    0.0000 </r>
       <r>   18.9821    0.0000 </r>
      </set>
      <set comment="kpoint 32">
       <r>   -6.7239    1.0000 </r>
       <r>    0.9156    1.0000 </r>
       <r>    3.0349    1.0000 </r>
       <r>    4.7339    1.0000 </r>
       <r>   12.0616    0.0000 </r>
       <r>   15.3891    0.0000 </r>
       <r>   17.9250    0.0000 </r>
       <r>   18.5887    0.0000 </r>
      </set>
      <set comment="kpoint 33">
       <r>   -6.8787    1.0000 </r>
       <r>    1.1259    1.0000 </r>
       <r>    2.9279    1.0000 </r>
       <r>    4.9710    1.0000 </r>
       <r>   12.7593    0.0000 </r>
       <r>   15.1088    0.0000 </r>
       <r>   17.6285    0.0000 </r>
       <r>   18.3026    0.0000 </r>
      </set>
      <set comment="kpoint 34">
       <r>   -7.2367    1.0000 </r>
       <r>    1.4502    1.0000 </r>
       <r>    3.3169    1.0000 </r>
       <r>    5.2368    1.0000 </r>
       <r>   13.4767    0.0000 </r>
       <r>   14.7930    0.0000 </r>
       <r>   17.1825    0.0000 </r>
       <r>   18.1006    0.0000 </r>
      </set>
      <set comment="kpoint 35">
       <r>   -7.3224    1.0000 </r>
       <r>    1.9027    1.0000 </r>
       <r>    4.3819    1.0000 </r>
       <r>    4.3819    1.0000 </r>
       <r>   10.5178    0.0000 </r>
       <r>   14.9827    0.0000 </r>
       <r>   17.8287    0.0000 </r>
       <r>   20.3087    0.0000 </r>
      </set>
      <set comment="kpoint 36">
       <r>   -6.9789    1.0000 </r>
       <r>    1.4850    1.0000 </r>
       <r>    4.0077    1.0000 </r>
       <r>    4.2654    1.0000 </r>
       <r>   10.1925    0.0000 </r>
       <r>   14.8810    0.0000 </r>
       <r>   18.1928    0.0000 </r>
       <r>   20.4129    0.0000 </r>
      </set>
      <set comment="kpoint 37">
       <r>   -6.6878    1.0000 </r>
       <r>    1.2666    1.0000 </r>
       <r>    3.2697    1.0000 </r>
       <r>    4.2799    1.0000 </r>
       <r>   10.4037    0.0000 </r>
       <r>   15.2364    0.0000 </r>
       <r>   18.3293    0.0000 </r>
       <r>   20.1108    0.0000 </r>
      </set>
      <set comment="kpoint 38">
       <r>   -6.5546    1.0000 </r>
       <r>    1.3881    1.0000 </r>
       <r>    2.4452    1.0000 </r>
       <r>    4.4231    1.0000 </r>
       <r>   10.9583    0.0000 </r>
       <r>   15.6845    0.0000 </r>
       <r>   18.3883    0.0000 </r>
       <r>   19.6101    0.0000 </r>
      </set>
      <set comment="kpoint 39">
       <r>   -6.6309    1.0000 </r>
       <r>    1.5274    1.0000 </r>
       <r>    2.1321    1.0000 </r>
       <r>    4.6703    1.0000 </r>
       <r>   11.7567    0.0000 </r>
       <r>   15.7157    0.0000 </r>
       <r>   18.0597    0.0000 </r>
       <r>   18.9993    0.0000 </r>
      </set>
      <set comment="kpoint 40">
       <r>   -6.7382    1.0000 </r>
       <r>    1.1927    1.0000 </r>
       <r>    4.1040    1.0000 </r>
       <r>    4.1040    1.0000 </r>
       <r>    9.4619    0.0000 </r>
       <r>   14.4234    0.0000 </r>
       <r>   18.9296    0.0000 </r>
       <r>   20.9511    0.0000 </r>
      </set>
      <set comment="kpoint 41">
       <r>   -6.5513    1.0000 </r>
       <r>    1.0547    1.0000 </r>
       <r>    3.7143    1.0000 </r>
       <r>    4.0775    1.0000 </r>
       <r>    9.4626    0.0000 </r>
       <r>   14.5247    0.0000 </r>
       <r>   19.1487    0.0000 </r>
       <r>   20.9228    0.0000 </r>
      </set>
      <set comment="kpoint 42">
       <r>   -6.4849    1.0000 </r>
       <r>    1.2163    1.0000 </r>
       <r>    2.9374    1.0000 </r>
       <r>    4.1899    1.0000 </r>
       <r>   10.0568    0.0000 </r>
       <r>   15.1052    0.0000 </r>
       <r>   18.9856    0.0000 </r>
       <r>   20.4375    0.0000 </r>
      </set>
      <set comment="kpoint 43">
       <r>   -6.4970    1.0000 </r>
       <r>    0.9217    1.0000 </r>
       <r>    4.0064    1.0000 </r>
       <r>    4.0064    1.0000 </r>
       <r>    9.0634    0.0000 </r>
       <r>   14.2327    0.0000 </r>
       <r>   19.4134    0.0000 </r>
       <r>   21.2103    0.0000 </r>
      </set>
      <set comment="kpoint 44">
       <r>   -8.4605    1.0000 </r>
       <r>    3.4977    1.0000 </r>
       <r>    5.0532    1.0000 </r>
       <r>    5.5140    1.0000 </r>
       <r>   11.7854    0.0000 </r>
       <r>   16.7481    0.0000 </r>
       <r>   17.5753    0.0000 </r>
       <r>   18.6830    0.0000 </r>
      </set>
      <set comment="kpoint 45">
       <r>   -8.0413    1.0000 </r>
       <r>    2.4688    1.0000 </r>
       <r>    4.6979    1.0000 </r>
       <r>    5.4101    1.0000 </r>
       <r>   12.4538    0.0000 </r>
       <r>   16.1395    0.0000 </r>
       <r>   16.9719    0.0000 </r>
       <r>   18.4457    0.0000 </r>
      </set>
      <set comment="kpoint 46">
       <r>   -7.5543    1.0000 </r>
       <r>    1.4201    1.0000 </r>
       <r>    4.4787    1.0000 </r>
       <r>    5.2391    1.0000 </r>
       <r>   12.9513    0.0000 </r>
       <r>   15.2351    0.0000 </r>
       <r>   17.1442    0.0000 </r>
       <r>   17.9697    0.0000 </r>
      </set>
      <set comment="kpoint 47">
       <r>   -7.1345    1.0000 </r>
       <r>    0.6195    1.0000 </r>
       <r>    4.3729    1.0000 </r>
       <r>    5.0807    1.0000 </r>
       <r>   13.3072    0.0000 </r>
       <r>   14.4965    0.0000 </r>
       <r>   17.4765    0.0000 </r>
       <r>   17.6288    0.0000 </r>
      </set>
      <set comment="kpoint 48">
       <r>   -6.9619    1.0000 </r>
       <r>    0.3134    1.0000 </r>
       <r>    4.3448    1.0000 </r>
       <r>    5.0153    1.0000 </r>
       <r>   13.5264    0.0000 </r>
       <r>   14.1267    0.0000 </r>
       <r>   17.4857    0.0000 </r>
       <r>   17.6488    0.0000 </r>
      </set>
      <set comment="kpoint 49">
       <r>   -7.8994    1.0000 </r>
       <r>    2.5401    1.0000 </r>
       <r>    4.5595    1.0000 </r>
       <r>    5.0036    1.0000 </r>
       <r>   11.9989    0.0000 </r>
       <r>   16.0832    0.0000 </r>
       <r>   16.6210    0.0000 </r>
       <r>   19.2183    0.0000 </r>
      </set>
      <set comment="kpoint 50">
       <r>   -7.4607    1.0000 </r>
       <r>    1.7787    1.0000 </r>
       <r>    4.1423    1.0000 </r>
       <r>    4.8273    1.0000 </r>
       <r>   12.1088    0.0000 </r>
       <r>   15.8450    0.0000 </r>
       <r>   16.5739    0.0000 </r>
       <r>   18.9883    0.0000 </r>
      </set>
      <set comment="kpoint 51">
       <r>   -7.0462    1.0000 </r>
       <r>    1.1038    1.0000 </r>
       <r>    3.8032    1.0000 </r>
       <r>    4.6687    1.0000 </r>
       <r>   12.2726    0.0000 </r>
       <r>   15.3829    0.0000 </r>
       <r>   17.1735    0.0000 </r>
       <r>   18.6282    0.0000 </r>
      </set>
      <set comment="kpoint 52">
       <r>   -6.8087    1.0000 </r>
       <r>    0.7418    1.0000 </r>
       <r>    3.5386    1.0000 </r>
       <r>    4.6578    1.0000 </r>
       <r>   12.5357    0.0000 </r>
       <r>   15.0156    0.0000 </r>
       <r>   17.6869    0.0000 </r>
       <r>   18.3438    0.0000 </r>
      </set>
      <set comment="kpoint 53">
       <r>   -6.8658    1.0000 </r>
       <r>    0.8364    1.0000 </r>
       <r>    3.4165    1.0000 </r>
       <r>    4.8010    1.0000 </r>
       <r>   12.8793    0.0000 </r>
       <r>   14.8413    0.0000 </r>
       <r>   17.6096    0.0000 </r>
       <r>   18.2223    0.0000 </r>
      </set>
      <set comment="kpoint 54">
       <r>   -7.1862    1.0000 </r>
       <r>    1.3119    1.0000 </r>
       <r>    3.5372    1.0000 </r>
       <r>    5.0356    1.0000 </r>
       <r>   13.1122    0.0000 </r>
       <r>   14.9909    0.0000 </r>
       <r>   17.0871    0.0000 </r>
       <r>   18.2797    0.0000 </r>
      </set>
      <set comment="kpoint 55">
       <r>   -7.6245    1.0000 </r>
       <r>    1.9165    1.0000 </r>
       <r>    3.9876    1.0000 </r>
       <r>    5.2717    1.0000 </r>
       <r>   12.9517    0.0000 </r>
       <r>   15.5359    0.0000 </r>
       <r>   16.7208    0.0000 </r>
       <r>   18.4187    0.0000 </r>
      </set>
      <set comment="kpoint 56">
       <r>   -7.2546    1.0000 </r>
       <r>    1.7699    1.0000 </r>
       <r>    4.1158    1.0000 </r>
       <r>    4.4164    1.0000 </r>
       <r>   11.0024    0.0000 </r>
       <r>   15.3848    0.0000 </r>
       <r>   17.3234    0.0000 </r>
       <r>   19.8612    0.0000 </r>
      </set>
      <set comment="kpoint 57">
       <r>   -6.8912    1.0000 </r>
       <r>    1.3920    1.0000 </r>
       <r>    3.5662    1.0000 </r>
       <r>    4.2335    1.0000 </r>
       <r>   11.0726    0.0000 </r>
       <r>   15.5943    0.0000 </r>
       <r>   17.4128    0.0000 </r>
       <r>   19.5959    0.0000 </r>
      </set>
      <set comment="kpoint 58">
       <r>   -6.6497    1.0000 </r>
       <r>    1.2413    1.0000 </r>
       <r>    2.9180    1.0000 </r>
       <r>    4.2498    1.0000 </r>
       <r>   11.4269    0.0000 </r>
       <r>   15.7854    0.0000 </r>
       <r>   17.7085    0.0000 </r>
       <r>   19.1426    0.0000 </r>
      </set>
      <set comment="kpoint 59">
       <r>   -6.6306    1.0000 </r>
       <r>    1.3248    1.0000 </r>
       <r>    2.5031    1.0000 </r>
       <r>    4.4357    1.0000 </r>
       <r>   11.9661    0.0000 </r>
       <r>   15.6838    0.0000 </r>
       <r>   17.8415    0.0000 </r>
       <r>   18.7600    0.0000 </r>
      </set>
      <set comment="kpoint 60">
       <r>   -6.8396    1.0000 </r>
       <r>    1.3492    1.0000 </r>
       <r>    2.7379    1.0000 </r>
       <r>    4.7279    1.0000 </r>
       <r>   12.6146    0.0000 </r>
       <r>   15.3564    0.0000 </r>
       <r>   17.3629    0.0000 </r>
       <r>   18.5917    0.0000 </r>
      </set>
      <set comment="kpoint 61">
       <r>   -6.7065    1.0000 </r>
       <r>    1.2565    1.0000 </r>
       <r>    3.8165    1.0000 </r>
       <r>    3.9328    1.0000 </r>
       <r>   10.0273    0.0000 </r>
       <r>   14.8876    0.0000 </r>
       <r>   18.5235    0.0000 </r>
       <r>   20.2860    0.0000 </r>
      </set>
      <set comment="kpoint 62">
       <r>   -6.5256    1.0000 </r>
       <r>    1.2902    1.0000 </r>
       <r>    3.0727    1.0000 </r>
       <r>    3.9161    1.0000 </r>
       <r>   10.4277    0.0000 </r>
       <r>   15.3545    0.0000 </r>
       <r>   18.5623    0.0000 </r>
       <r>   19.6353    0.0000 </r>
      </set>
      <set comment="kpoint 63">
       <r>   -6.4998    1.0000 </r>
       <r>    1.6176    1.0000 </r>
       <r>    2.2458    1.0000 </r>
       <r>    4.1129    1.0000 </r>
       <r>   11.1177    0.0000 </r>
       <r>   15.8644    0.0000 </r>
       <r>   18.4006    0.0000 </r>
       <r>   18.9544    0.0000 </r>
      </set>
      <set comment="kpoint 64">
       <r>   -6.4839    1.0000 </r>
       <r>    1.0708    1.0000 </r>
       <r>    3.7131    1.0000 </r>
       <r>    3.7392    1.0000 </r>
       <r>    9.6668    0.0000 </r>
       <r>   14.7165    0.0000 </r>
       <r>   19.1817    0.0000 </r>
       <r>   20.2954    0.0000 </r>
      </set>
      <set comment="kpoint 65">
       <r>   -7.0732    1.0000 </r>
       <r>    1.4961    1.0000 </r>
       <r>    3.4735    1.0000 </r>
       <r>    4.5547    1.0000 </r>
       <r>   12.1154    0.0000 </r>
       <r>   16.0508    0.0000 </r>
       <r>   16.3915    0.0000 </r>
       <r>   19.0370    0.0000 </r>
      </set>
      <set comment="kpoint 66">
       <r>   -6.7556    1.0000 </r>
       <r>    1.2866    1.0000 </r>
       <r>    3.0185    1.0000 </r>
       <r>    4.2589    1.0000 </r>
       <r>   12.1662    0.0000 </r>
       <r>   15.7718    0.0000 </r>
       <r>   17.0704    0.0000 </r>
       <r>   18.8527    0.0000 </r>
      </set>
      <set comment="kpoint 67">
       <r>   -6.6303    1.0000 </r>
       <r>    1.2006    1.0000 </r>
       <r>    2.8649    1.0000 </r>
       <r>    4.1347    1.0000 </r>
       <r>   12.1888    0.0000 </r>
       <r>   15.6386    0.0000 </r>
       <r>   17.5797    0.0000 </r>
       <r>   18.6340    0.0000 </r>
      </set>
      <set comment="kpoint 68">
       <r>   -6.6294    1.0000 </r>
       <r>    1.4227    1.0000 </r>
       <r>    3.1327    1.0000 </r>
       <r>    3.7287    1.0000 </r>
       <r>   11.2645    0.0000 </r>
       <r>   16.0134    0.0000 </r>
       <r>   17.3100    0.0000 </r>
       <r>   19.2347    0.0000 </r>
      </set>
      <set comment="kpoint 69">
       <r>   -6.4995    1.0000 </r>
       <r>    1.6572    1.0000 </r>
       <r>    2.5289    1.0000 </r>
       <r>    3.5814    1.0000 </r>
       <r>   11.6253    0.0000 </r>
       <r>   16.3543    0.0000 </r>
       <r>   17.5264    0.0000 </r>
       <r>   18.5033    0.0000 </r>
      </set>
      <set comment="kpoint 70">
       <r>   -6.5489    1.0000 </r>
       <r>    1.6734    1.0000 </r>
       <r>    2.3759    1.0000 </r>
       <r>    3.8232    1.0000 </r>
       <r>   11.9594    0.0000 </r>
       <r>   16.2176    0.0000 </r>
       <r>   17.3785    0.0000 </r>
       <r>   18.5261    0.0000 </r>
      </set>
      <set comment="kpoint 71">
       <r>   -6.4573    1.0000 </r>
       <r>    1.4983    1.0000 </r>
       <r>    3.0210    1.0000 </r>
       <r>    3.2994    1.0000 </r>
       <r>   10.9619    0.0000 </r>
       <r>   15.9071    0.0000 </r>
       <r>   18.4995    0.0000 </r>
       <r>   18.5098    0.0000 </r>
      </set>
      <set comment="kpoint 72">
       <r>   -6.4438    1.0000 </r>
       <r>    2.0002    1.0000 </r>
       <r>    2.3966    1.0000 </r>
       <r>    3.1109    1.0000 </r>
       <r>   11.7513    0.0000 </r>
       <r>   17.0547    0.0000 </r>
       <r>   17.5161    0.0000 </r>
       <r>   17.6106    0.0000 </r>
      </set>
     </set>
    </set>
   </array>
  </eigenvalues>
  <separator name="orbital magnetization" >
   <v name="MAGDIPOLOUT">      0.00000000      0.00000000      0.00000000</v>
  </separator>
  <dos>
   <i name="efermi">      6.89190500 </i>
   <total>
    <array>
     <dimension dim="1">gridpoints</dimension>
     <dimension dim="2">spin</dimension>
     <field>energy</field>
     <field>total</field>
     <field>integrated</field>
     <set>
      <set comment="spin 1">
       <r>   -10.6084     0.0000     0.0000 </r>
       <r>    -7.2750     0.0132     0.6864 </r>
       <r>    -3.9416     0.0000     2.0000 </r>
       <r>    -0.6082     0.0000     2.0000 </r>
       <r>     2.7252     0.0003     4.0230 </r>
       <r>     6.0586     0.0000     8.0000 </r>
       <r>     9.3920     0.0000     8.0035 </r>
       <r>    12.7253     0.0000     9.4444 </r>
       <r>    16.0587     0.0156    11.5855 </r>
       <r>    19.3921     0.0000    15.6113 </r>
       <r>    22.7255     0.0000    16.0000 </r>
      </set>
     </set>
    </array>
   </total>
   <partial>
    <array>
     <dimension dim="1">gridpoints</dimension>
     <dimension dim="2">spin</dimension>
     <dimension dim="3">ion</dimension>
     <field>energy</field>
     <field>  s  </field>
     <field>  p  </field>
     <field>  d  </field>
     <set>
      <set comment="ion 1">
       <set comment="spin 1">
        <r>   -10.6084     0.0000     0.0000     0.0000 </r>
        <r>    -7.2750     0.0006     0.0004     0.0000 </r>
        <r>    -3.9416     0.0000     0.0000     0.0000 </r>
        <r>    -0.6082     0.0000     0.0000     0.0000 </r>
        <r>     2.7252     0.0000     0.0000     0.0000 </r>
        <r>     6.0586     0.0000     0.0000     0.0000 </r>
        <r>     9.3920     0.0000     0.0000     0.0000 </r>
        <r>    12.7253     0.0000     0.0000     0.0000 </r>
        <r>    16.0587     0.0014     0.0010     0.0000 </r>
        <r>    19.3921     0.0000     0.0000     0.0000 </r>
        <r>    22.7255     0.0000     0.0000     0.0000 </r>
       </set>
      </set>
      <set comment="ion 2">
       <set comment="spin 1">
        <r>   -10.6084     0.0000     0.0000     0.0000 </r>
        <r>    -7.2750     0.0074     0.0000     0.0000 </r>
        <r>    -3.9416     0.0000     0.0000     0.0000 </r>
        <r>    -0.6082     0.0000     0.0000     0.0000 </r>
        <r>     2.7252     0.0000     0.0001     0.0000 </r>
        <r>     6.0586     0.0000     0.0000     0.0000 </r>
        <r>     9.3920     0.0000     0.0000     0.0000 </r>
        <r>    12.7253     0.0000     0.0000     0.0000 </r>
        <r>    16.0587     0.0006     0.0021     0.0000 </r>
        <r>    19.3921     0.0000     0.0000     0.0000 </r>
        <r>    22.7255     0.0000     0.0000     0.0000 </r>
       </set>
      </set>
     </set>
    </array>
   </partial>
  </dos>
  <projected>
   <eigenvalues>
    <array>
     <dimension dim="1">band</dimension>
     <dimension dim="2">kpoint</dimension>
     <dimension dim="3">spin</dimension>
     <field>eigene</field>
     <field>occ</field>
     <set>
      <set comment="spin 1">
       <set comment="kpoint 1">
        <r>   -9.0932    1.0000 </r>
        <r>    5.7568    1.0000 </r>
        <r>    5.7568    1.0000 </r>
        <r>    5.7568    1.0000 </r>
        <r>    9.7551    0.0000 </r>
        <r>   18.0925    0.0000 </r>
        <r>   18.0925    0.0000 </r>
        <r>   18.0925    0.0000 </r>
       </set>
       <set comment="kpoint 2">
        <r>   -8.9939    1.0000 </r>
        <r>    5.1664    1.0000 </r>
        <r>    5.7206    1.0000 </r>
        <r>    5.7206    1.0000 </r>
        <r>   10.2458    0.0000 </r>
        <r>   17.8146    0.0000 </r>
        <r>   18.1917    0.0000 </r>
        <r>   18.1917    0.0000 </r>
       </set>
       <set comment="kpoint 3">
        <r>   -8.7065    1.0000 </r>
        <r>    3.9148    1.0000 </r>
        <r>    5.6251    1.0000 </r>
        <r>    5.6251    1.0000 </r>
        <r>   11.1835    0.0000 </r>
        <r>   17.1874    0.0000 </r>
        <r>   18.2637    0.0000 </r>
        <r>   18.2637    0.0000 </r>
       </set>
       <set comment="kpoint 4">
        <r>   -8.2668    1.0000 </r>
        <r>    2.5302    1.0000 </r>
        <r>    5.5023    1.0000 </r>
        <r>    5.5023    1.0000 </r>
        <r>   12.0211    0.0000 </r>
        <r>   16.5226    0.0000 </r>
        <r>   17.8964    0.0000 </r>
        <r>   17.8964    0.0000 </r>
       </set>
       <set comment="kpoint 5">
        <r>   -7.7509    1.0000 </r>
        <r>    1.2681    1.0000 </r>
        <r>    5.3874    1.0000 </r>
        <r>    5.3874    1.0000 </r>
        <r>   12.5709    0.0000 </r>
        <r>   15.9740    0.0000 </r>
        <r>   17.3280    0.0000 </r>
        <r>   17.3280    0.0000 </r>
       </set>
       <set comment="kpoint 6">
        <r>   -7.2995    1.0000 </r>
        <r>    0.3451    1.0000 </r>
        <r>    5.3076    1.0000 </r>
        <r>    5.3076    1.0000 </r>
        <r>   12.8489    0.0000 </r>
        <r>   15.6035    0.0000 </r>
        <r>   16.9088    0.0000 </r>
        <r>   16.9088    0.0000 </r>
       </set>
       <set comment="kpoint 7">
        <r>   -7.1115    1.0000 </r>
        <r>   -0.0037    1.0000 </r>
        <r>    5.2793    1.0000 </r>
        <r>    5.2793    1.0000 </r>
        <r>   12.9313    0.0000 </r>
        <r>   15.4691    0.0000 </r>
        <r>   16.7602    0.0000 </r>
        <r>   16.7602    0.0000 </r>
       </set>
       <set comment="kpoint 8">
        <r>   -8.9609    1.0000 </r>
        <r>    5.1683    1.0000 </r>
        <r>    5.6133    1.0000 </r>
        <r>    5.6133    1.0000 </r>
        <r>   10.3977    0.0000 </r>
        <r>   17.6462    0.0000 </r>
        <r>   18.2865    0.0000 </r>
        <r>   18.2865    0.0000 </r>
       </set>
       <set comment="kpoint 9">
        <r>   -8.7363    1.0000 </r>
        <r>    4.2376    1.0000 </r>
        <r>    5.4602    1.0000 </r>
        <r>    5.5472    1.0000 </r>
        <r>   11.1405    0.0000 </r>
        <r>   17.1655    0.0000 </r>
        <r>   18.2504    0.0000 </r>
        <r>   18.4619    0.0000 </r>
       </set>
       <set comment="kpoint 10">
        <r>   -8.3468    1.0000 </r>
        <r>    2.9623    1.0000 </r>
        <r>    5.3074    1.0000 </r>
        <r>    5.4389    1.0000 </r>
        <r>   11.9585    0.0000 </r>
        <r>   16.5690    0.0000 </r>
        <r>   17.6078    0.0000 </r>
        <r>   18.3404    0.0000 </r>
       </set>
       <set comment="kpoint 11">
        <r>   -7.8528    1.0000 </r>
        <r>    1.7020    1.0000 </r>
        <r>    5.1951    1.0000 </r>
        <r>    5.2722    1.0000 </r>
        <r>   12.5821    0.0000 </r>
        <r>   15.8025    0.0000 </r>
        <r>   17.2829    0.0000 </r>
        <r>   17.8699    0.0000 </r>
       </set>
       <set comment="kpoint 12">
        <r>   -7.3700    1.0000 </r>
        <r>    0.6831    1.0000 </r>
        <r>    5.0952    1.0000 </r>
        <r>    5.1483    1.0000 </r>
        <r>   12.9870    0.0000 </r>
        <r>   15.1060    0.0000 </r>
        <r>   17.2565    0.0000 </r>
        <r>   17.3709    0.0000 </r>
       </set>
       <set comment="kpoint 13">
        <r>   -7.0808    1.0000 </r>
        <r>    0.1411    1.0000 </r>
        <r>    4.9531    1.0000 </r>
        <r>    5.1752    1.0000 </r>
        <r>   13.2365    0.0000 </r>
        <r>   14.6950    0.0000 </r>
        <r>   17.0551    0.0000 </r>
        <r>   17.2944    0.0000 </r>
       </set>
       <set comment="kpoint 14">
        <r>   -7.1439    1.0000 </r>
        <r>    0.2559    1.0000 </r>
        <r>    4.8789    1.0000 </r>
        <r>    5.2686    1.0000 </r>
        <r>   13.2493    0.0000 </r>
        <r>   14.7672    0.0000 </r>
        <r>   17.0087    0.0000 </r>
        <r>   17.3321    0.0000 </r>
       </set>
       <set comment="kpoint 15">
        <r>   -7.5207    1.0000 </r>
        <r>    0.9832    1.0000 </r>
        <r>    4.8921    1.0000 </r>
        <r>    5.4075    1.0000 </r>
        <r>   12.9881    0.0000 </r>
        <r>   15.3191    0.0000 </r>
        <r>   17.2585    0.0000 </r>
        <r>   17.3629    0.0000 </r>
       </set>
       <set comment="kpoint 16">
        <r>   -8.0245    1.0000 </r>
        <r>    2.1010    1.0000 </r>
        <r>    4.9981    1.0000 </r>
        <r>    5.5599    1.0000 </r>
        <r>   12.4908    0.0000 </r>
        <r>   16.1211    0.0000 </r>
        <r>   17.4615    0.0000 </r>
        <r>   17.7738    0.0000 </r>
       </set>
       <set comment="kpoint 17">
        <r>   -8.4930    1.0000 </r>
        <r>    3.3676    1.0000 </r>
        <r>    5.1891    1.0000 </r>
        <r>    5.6860    1.0000 </r>
        <r>   11.7367    0.0000 </r>
        <r>   16.9000    0.0000 </r>
        <r>   17.8040    0.0000 </r>
        <r>   18.3188    0.0000 </r>
       </set>
       <set comment="kpoint 18">
        <r>   -8.8319    1.0000 </r>
        <r>    4.5119    1.0000 </r>
        <r>    5.4554    1.0000 </r>
        <r>    5.7471    1.0000 </r>
        <r>   10.8569    0.0000 </r>
        <r>   17.4607    0.0000 </r>
        <r>   18.1951    0.0000 </r>
        <r>   18.3266    0.0000 </r>
       </set>
       <set comment="kpoint 19">
        <r>   -8.5789    1.0000 </r>
        <r>    4.0320    1.0000 </r>
        <r>    5.2460    1.0000 </r>
        <r>    5.2460    1.0000 </r>
        <r>   11.4777    0.0000 </r>
        <r>   16.6902    0.0000 </r>
        <r>   18.2622    0.0000 </r>
        <r>   18.8083    0.0000 </r>
       </set>
       <set comment="kpoint 20">
        <r>   -8.2532    1.0000 </r>
        <r>    3.1786    1.0000 </r>
        <r>    5.0447    1.0000 </r>
        <r>    5.0684    1.0000 </r>
        <r>   11.9018    0.0000 </r>
        <r>   16.2978    0.0000 </r>
        <r>   17.1847    0.0000 </r>
        <r>   18.9793    0.0000 </r>
       </set>
       <set comment="kpoint 21">
        <r>   -7.8076    1.0000 </r>
        <r>    2.1223    1.0000 </r>
        <r>    4.8226    1.0000 </r>
        <r>    4.9054    1.0000 </r>
        <r>   12.2466    0.0000 </r>
        <r>   15.8614    0.0000 </r>
        <r>   16.8113    0.0000 </r>
        <r>   18.7439    0.0000 </r>
       </set>
       <set comment="kpoint 22">
        <r>   -7.3357    1.0000 </r>
        <r>    1.1643    1.0000 </r>
        <r>    4.5032    1.0000 </r>
        <r>    4.8572    1.0000 </r>
        <r>   12.5129    0.0000 </r>
        <r>   15.2482    0.0000 </r>
        <r>   17.1981    0.0000 </r>
        <r>   18.2831    0.0000 </r>
       </set>
       <set comment="kpoint 23">
        <r>   -6.9906    1.0000 </r>
        <r>    0.5415    1.0000 </r>
        <r>    4.2012    1.0000 </r>
        <r>    4.9085    1.0000 </r>
        <r>   12.8299    0.0000 </r>
        <r>   14.7411    0.0000 </r>
        <r>   17.6338    0.0000 </r>
        <r>   17.8639    0.0000 </r>
       </set>
       <set comment="kpoint 24">
        <r>   -6.9375    1.0000 </r>
        <r>    0.4540    1.0000 </r>
        <r>    3.9987    1.0000 </r>
        <r>    5.0484    1.0000 </r>
        <r>   13.2916    0.0000 </r>
        <r>   14.3768    0.0000 </r>
        <r>   17.6302    0.0000 </r>
        <r>   17.7196    0.0000 </r>
       </set>
       <set comment="kpoint 25">
        <r>   -7.2064    1.0000 </r>
        <r>    0.9245    1.0000 </r>
        <r>    3.9576    1.0000 </r>
        <r>    5.2473    1.0000 </r>
        <r>   13.6171    0.0000 </r>
        <r>   14.4189    0.0000 </r>
        <r>   17.4429    0.0000 </r>
        <r>   17.6431    0.0000 </r>
       </set>
       <set comment="kpoint 26">
        <r>   -7.6572    1.0000 </r>
        <r>    1.7503    1.0000 </r>
        <r>    4.1320    1.0000 </r>
        <r>    5.4581    1.0000 </r>
        <r>   13.2464    0.0000 </r>
        <r>   15.2854    0.0000 </r>
        <r>   17.0805    0.0000 </r>
        <r>   17.9067    0.0000 </r>
       </set>
       <set comment="kpoint 27">
        <r>   -8.1231    1.0000 </r>
        <r>    2.6370    1.0000 </r>
        <r>    4.5695    1.0000 </r>
        <r>    5.6222    1.0000 </r>
        <r>   12.5396    0.0000 </r>
        <r>   16.3790    0.0000 </r>
        <r>   17.0256    0.0000 </r>
        <r>   18.2791    0.0000 </r>
       </set>
       <set comment="kpoint 28">
        <r>   -7.9980    1.0000 </r>
        <r>    2.8873    1.0000 </r>
        <r>    4.7921    1.0000 </r>
        <r>    4.7921    1.0000 </r>
        <r>   11.6090    0.0000 </r>
        <r>   15.8197    0.0000 </r>
        <r>   17.0884    0.0000 </r>
        <r>   19.5305    0.0000 </r>
       </set>
       <set comment="kpoint 29">
        <r>   -7.6202    1.0000 </r>
        <r>    2.2271    1.0000 </r>
        <r>    4.5026    1.0000 </r>
        <r>    4.6101    1.0000 </r>
        <r>   11.3507    0.0000 </r>
        <r>   15.5533    0.0000 </r>
        <r>   17.0782    0.0000 </r>
        <r>   19.6779    0.0000 </r>
       </set>
       <set comment="kpoint 30">
        <r>   -7.1966    1.0000 </r>
        <r>    1.5405    1.0000 </r>
        <r>    4.0159    1.0000 </r>
        <r>    4.5346    1.0000 </r>
        <r>   11.3401    0.0000 </r>
        <r>   15.5711    0.0000 </r>
        <r>   17.1955    0.0000 </r>
        <r>   19.4101    0.0000 </r>
       </set>
       <set comment="kpoint 31">
        <r>   -6.8505    1.0000 </r>
        <r>    1.0520    1.0000 </r>
        <r>    3.4592    1.0000 </r>
        <r>    4.5785    1.0000 </r>
        <r>   11.5826    0.0000 </r>
        <r>   15.5576    0.0000 </r>
        <r>   17.6272    0.0000 </r>
        <r>   18.9821    0.0000 </r>
       </set>
       <set comment="kpoint 32">
        <r>   -6.7239    1.0000 </r>
        <r>    0.9156    1.0000 </r>
        <r>    3.0349    1.0000 </r>
        <r>    4.7339    1.0000 </r>
        <r>   12.0616    0.0000 </r>
        <r>   15.3891    0.0000 </r>
        <r>   17.9250    0.0000 </r>
        <r>   18.5887    0.0000 </r>
       </set>
       <set comment="kpoint 33">
        <r>   -6.8787    1.0000 </r>
        <r>    1.1259    1.0000 </r>
        <r>    2.9279    1.0000 </r>
        <r>    4.9710    1.0000 </r>
        <r>   12.7593    0.0000 </r>
        <r>   15.1088    0.0000 </r>
        <r>   17.6285    0.0000 </r>
        <r>   18.3026    0.0000 </r>
       </set>
       <set comment="kpoint 34">
        <r>   -7.2367    1.0000 </r>
        <r>    1.4502    1.0000 </r>
        <r>    3.3169    1.0000 </r>
        <r>    5.2368    1.0000 </r>
        <r>   13.4767    0.0000 </r>
        <r>   14.7930    0.0000 </r>
        <r>   17.1825    0.0000 </r>
        <r>   18.1006    0.0000 </r>
       </set>
       <set comment="kpoint 35">
        <r>   -7.3224    1.0000 </r>
        <r>    1.9027    1.0000 </r>
        <r>    4.3819    1.0000 </r>
        <r>    4.3819    1.0000 </r>
        <r>   10.5178    0.0000 </r>
        <r>   14.9827    0.0000 </r>
        <r>   17.8287    0.0000 </r>
        <r>   20.3087    0.0000 </r>
       </set>
       <set comment="kpoint 36">
        <r>   -6.9789    1.0000 </r>
        <r>    1.4850    1.0000 </r>
        <r>    4.0077    1.0000 </r>
        <r>    4.2654    1.0000 </r>
        <r>   10.1925    0.0000 </r>
        <r>   14.8810    0.0000 </r>
        <r>   18.1928    0.0000 </r>
        <r>   20.4129    0.0000 </r>
       </set>
       <set comment="kpoint 37">
        <r>   -6.6878    1.0000 </r>
        <r>    1.2666    1.0000 </r>
        <r>    3.2697    1.0000 </r>
        <r>    4.2799    1.0000 </r>
        <r>   10.4037    0.0000 </r>
        <r>   15.2364    0.0000 </r>
        <r>   18.3293    0.0000 </r>
        <r>   20.1108    0.0000 </r>
       </set>
       <set comment="kpoint 38">
        <r>   -6.5546    1.0000 </r>
        <r>    1.3881    1.0000 </r>
        <r>    2.4452    1.0000 </r>
        <r>    4.4231    1.0000 </r>
        <r>   10.9583    0.0000 </r>
        <r>   15.6845    0.0000 </r>
        <r>   18.3883    0.0000 </r>
        <r>   19.6101    0.0000 </r>
       </set>
       <set comment="kpoint 39">
        <r>   -6.6309    1.0000 </r>
        <r>    1.5274    1.0000 </r>
        <r>    2.1321    1.0000 </r>
        <r>    4.6703    1.0000 </r>
        <r>   11.7567    0.0000 </r>
        <r>   15.7157    0.0000 </r>
        <r>   18.0597    0.0000 </r>
        <r>   18.9993    0.0000 </r>
       </set>
       <set comment="kpoint 40">
        <r>   -6.7382    1.0000 </r>
        <r>    1.1927    1.0000 </r>
        <r>    4.1040    1.0000 </r>
        <r>    4.1040    1.0000 </r>
        <r>    9.4619    0.0000 </r>
        <r>   14.4234    0.0000 </r>
        <r>   18.9296    0.0000 </r>
        <r>   20.9511    0.0000 </r>
       </set>
       <set comment="kpoint 41">
        <r>   -6.5513    1.0000 </r>
        <r>    1.0547    1.0000 </r>
        <r>    3.7143    1.0000 </r>
        <r>    4.0775    1.0000 </r>
        <r>    9.4626    0.0000 </r>
        <r>   14.5247    0.0000 </r>
        <r>   19.1487    0.0000 </r>
        <r>   20.9228    0.0000 </r>
       </set>
       <set comment="kpoint 42">
        <r>   -6.4849    1.0000 </r>
        <r>    1.2163    1.0000 </r>
        <r>    2.9374    1.0000 </r>
        <r>    4.1899    1.0000 </r>
        <r>   10.0568    0.0000 </r>
        <r>   15.1052    0.0000 </r>
        <r>   18.9856    0.0000 </r>
        <r>   20.4375    0.0000 </r>
       </set>
       <set comment="kpoint 43">
        <r>   -6.4970    1.0000 </r>
        <r>    0.9217    1.0000 </r>
        <r>    4.0064    1.0000 </r>
        <r>    4.0064    1.0000 </r>
        <r>    9.0634    0.0000 </r>
        <r>   14.2327    0.0000 </r>
        <r>   19.4134    0.0000 </r>
        <r>   21.2103    0.0000 </r>
       </set>
       <set comment="kpoint 44">
        <r>   -8.4605    1.0000 </r>
        <r>    3.4977    1.0000 </r>
        <r>    5.0532    1.0000 </r>
        <r>    5.5140    1.0000 </r>
        <r>   11.7854    0.0000 </r>
        <r>   16.7481    0.0000 </r>
        <r>   17.5753    0.0000 </r>
        <r>   18.6830    0.0000 </r>
       </set>
       <set comment="kpoint 45">
        <r>   -8.0413    1.0000 </r>
        <r>    2.4688    1.0000 </r>
        <r>    4.6979    1.0000 </r>
        <r>    5.4101    1.0000 </r>
        <r>   12.4538    0.0000 </r>
        <r>   16.1395    0.0000 </r>
        <r>   16.9719    0.0000 </r>
        <r>   18.4457    0.0000 </r>
       </set>
       <set comment="kpoint 46">
        <r>   -7.5543    1.0000 </r>
        <r>    1.4201    1.0000 </r>
        <r>    4.4787    1.0000 </r>
        <r>    5.2391    1.0000 </r>
        <r>   12.9513    0.0000 </r>
        <r>   15.2351    0.0000 </r>
        <r>   17.1442    0.0000 </r>
        <r>   17.9697    0.0000 </r>
       </set>
       <set comment="kpoint 47">
        <r>   -7.1345    1.0000 </r>
        <r>    0.6195    1.0000 </r>
        <r>    4.3729    1.0000 </r>
        <r>    5.0807    1.0000 </r>
        <r>   13.3072    0.0000 </r>
        <r>   14.4965    0.0000 </r>
        <r>   17.4765    0.0000 </r>
        <r>   17.6288    0.0000 </r>
       </set>
       <set comment="kpoint 48">
        <r>   -6.9619    1.0000 </r>
        <r>    0.3134    1.0000 </r>
        <r>    4.3448    1.0000 </r>
        <r>    5.0153    1.0000 </r>
        <r>   13.5264    0.0000 </r>
        <r>   14.1267    0.0000 </r>
        <r>   17.4857    0.0000 </r>
        <r>   17.6488    0.0000 </r>
       </set>
       <set comment="kpoint 49">
        <r>   -7.8994    1.0000 </r>
        <r>    2.5401    1.0000 </r>
        <r>    4.5595    1.0000 </r>
        <r>    5.0036    1.0000 </r>
        <r>   11.9989    0.0000 </r>
        <r>   16.0832    0.0000 </r>
        <r>   16.6210    0.0000 </r>
        <r>   19.2183    0.0000 </r>
       </set>
       <set comment="kpoint 50">
        <r>   -7.4607    1.0000 </r>
        <r>    1.7787    1.0000 </r>
        <r>    4.1423    1.0000 </r>
        <r>    4.8273    1.0000 </r>
        <r>   12.1088    0.0000 </r>
        <r>   15.8450    0.0000 </r>
        <r>   16.5739    0.0000 </r>
        <r>   18.9883    0.0000 </r>
       </set>
       <set comment="kpoint 51">
        <r>   -7.0462    1.0000 </r>
        <r>    1.1038    1.0000 </r>
        <r>    3.8032    1.0000 </r>
        <r>    4.6687    1.0000 </r>
        <r>   12.2726    0.0000 </r>
        <r>   15.3829    0.0000 </r>
        <r>   17.1735    0.0000 </r>
        <r>   18.6282    0.0000 </r>
       </set>
       <set comment="kpoint 52">
        <r>   -6.8087    1.0000 </r>
        <r>    0.7418    1.0000 </r>
        <r>    3.5386    1.0000 </r>
        <r>    4.6578    1.0000 </r>
        <r>   12.5357    0.0000 </r>
        <r>   15.0156    0.0000 </r>
        <r>   17.6869    0.0000 </r>
        <r>   18.3438    0.0000 </r>
       </set>
       <set comment="kpoint 53">
        <r>   -6.8658    1.0000 </r>
        <r>    0.8364    1.0000 </r>
        <r>    3.4165    1.0000 </r>
        <r>    4.8010    1.0000 </r>
        <r>   12.8793    0.0000 </r>
        <r>   14.8413    0.0000 </r>
        <r>   17.6096    0.0000 </r>
        <r>   18.2223    0.0000 </r>
       </set>
       <set comment="kpoint 54">
        <r>   -7.1862    1.0000 </r>
        <r>    1.3119    1.0000 </r>
        <r>    3.5372    1.0000 </r>
        <r>    5.0356    1.0000 </r>
        <r>   13.1122    0.0000 </r>
        <r>   14.9909    0.0000 </r>
        <r>   17.0871    0.0000 </r>
        <r>   18.2797    0.0000 </r>
       </set>
       <set comment="kpoint 55">
        <r>   -7.6245    1.0000 </r>
        <r>    1.9165    1.0000 </r>
        <r>    3.9876    1.0000 </r>
        <r>    5.2717    1.0000 </r>
        <r>   12.9517    0.0000 </r>
        <r>   15.5359    0.0000 </r>
        <r>   16.7208    0.0000 </r>
        <r>   18.4187    0.0000 </r>
       </set>
       <set comment="kpoint 56">
        <r>   -7.2546    1.0000 </r>
        <r>    1.7699    1.0000 </r>
        <r>    4.1158    1.0000 </r>
        <r>    4.4164    1.0000 </r>
        <r>   11.0024    0.0000 </r>
        <r>   15.3848    0.0000 </r>
        <r>   17.3234    0.0000 </r>
        <r>   19.8612    0.0000 </r>
       </set>
       <set comment="kpoint 57">
        <r>   -6.8912    1.0000 </r>
        <r>    1.3920    1.0000 </r>
        <r>    3.5662    1.0000 </r>
        <r>    4.2335    1.0000 </r>
        <r>   11.0726    0.0000 </r>
        <r>   15.5943    0.0000 </r>
        <r>   17.4128    0.0000 </r>
        <r>   19.5959    0.0000 </r>
       </set>
       <set comment="kpoint 58">
        <r>   -6.6497    1.0000 </r>
        <r>    1.2413    1.0000 </r>
        <r>    2.9180    1.0000 </r>
        <r>    4.2498    1.0000 </r>
        <r>   11.4269    0.0000 </r>
        <r>   15.7854    0.0000 </r>
        <r>   17.7085    0.0000 </r>
        <r>   19.1426    0.0000 </r>
       </set>
       <set comment="kpoint 59">
        <r>   -6.6306    1.0000 </r>
        <r>    1.3248    1.0000 </r>
        <r>    2.5031    1.0000 </r>
        <r>    4.4357    1.0000 </r>
        <r>   11.9661    0.0000 </r>
        <r>   15.6838    0.0000 </r>
        <r>   17.8415    0.0000 </r>
        <r>   18.7600    0.0000 </r>
       </set>
       <set comment="kpoint 60">
        <r>   -6.8396    1.0000 </r>
        <r>    1.3492    1.0000 </r>
        <r>    2.7379    1.0000 </r>
        <r>    4.7279    1.0000 </r>
        <r>   12.6146    0.0000 </r>
        <r>   15.3564    0.0000 </r>
        <r>   17.3629    0.0000 </r>
        <r>   18.5917    0.0000 </r>
       </set>
       <set comment="kpoint 61">
        <r>   -6.7065    1.0000 </r>
        <r>    1.2565    1.0000 </r>
        <r>    3.8165    1.0000 </r>
        <r>    3.9328    1.0000 </r>
        <r>   10.0273    0.0000 </r>
        <r>   14.8876    0.0000 </r>
        <r>   18.5235    0.0000 </r>
        <r>   20.2860    0.0000 </r>
       </set>
       <set comment="kpoint 62">
        <r>   -6.5256    1.0000 </r>
        <r>    1.2902    1.0000 </r>
        <r>    3.0727    1.0000 </r>
        <r>    3.9161    1.0000 </r>
        <r>   10.4277    0.0000 </r>
        <r>   15.3545    0.0000 </r>
        <r>   18.5623    0.0000 </r>
        <r>   19.6353    0.0000 </r>
       </set>
       <set comment="kpoint 63">
[...]
        <r>  0.0041  0.2468  0.0000 </r>
       </set>
       <set comment="band 8">
        <r>  0.0068  0.1760  0.0000 </r>
        <r>  0.0001  0.0966  0.0000 </r>
       </set>
      </set>
      <set comment="kpoint 55">
       <set comment="band 1">
        <r>  0.0604  0.0247  0.0000 </r>
        <r>  0.5359  0.0037  0.0000 </r>
       </set>
       <set comment="band 2">
        <r>  0.0802  0.0436  0.0000 </r>
        <r>  0.0673  0.3149  0.0000 </r>
       </set>
       <set comment="band 3">
        <r>  0.0348  0.0703  0.0000 </r>
        <r>  0.0000  0.4591  0.0000 </r>
       </set>
       <set comment="band 4">
        <r>  0.0028  0.0560  0.0000 </r>
        <r>  0.0012  0.5579  0.0000 </r>
       </set>
       <set comment="band 5">
        <r>  0.0122  0.0695  0.0000 </r>
        <r>  0.0833  0.2490  0.0000 </r>
       </set>
       <set comment="band 6">
        <r>  0.1051  0.1259  0.0000 </r>
        <r>  0.0738  0.0388  0.0000 </r>
       </set>
       <set comment="band 7">
        <r>  0.1623  0.0633  0.0000 </r>
        <r>  0.0003  0.1784  0.0000 </r>
       </set>
       <set comment="band 8">
        <r>  0.0012  0.2062  0.0000 </r>
        <r>  0.0001  0.0745  0.0000 </r>
       </set>
      </set>
      <set comment="kpoint 56">
       <set comment="band 1">
        <r>  0.0429  0.0324  0.0000 </r>
        <r>  0.5598  0.0038  0.0000 </r>
       </set>
       <set comment="band 2">
        <r>  0.1161  0.0165  0.0000 </r>
        <r>  0.0597  0.3235  0.0000 </r>
       </set>
       <set comment="band 3">
        <r>  0.0151  0.0891  0.0000 </r>
        <r>  0.0000  0.4742  0.0000 </r>
       </set>
       <set comment="band 4">
        <r>  0.0042  0.0905  0.0000 </r>
        <r>  0.0006  0.4906  0.0000 </r>
       </set>
       <set comment="band 5">
        <r>  0.0000  0.1053  0.0000 </r>
        <r>  0.0491  0.0958  0.0000 </r>
       </set>
       <set comment="band 6">
        <r>  0.2090  0.0396  0.0000 </r>
        <r>  0.0000  0.0485  0.0000 </r>
       </set>
       <set comment="band 7">
        <r>  0.1152  0.0446  0.0000 </r>
        <r>  0.0693  0.2603  0.0000 </r>
       </set>
       <set comment="band 8">
        <r>  0.0046  0.2101  0.0000 </r>
        <r>  0.0003  0.2033  0.0000 </r>
       </set>
      </set>
      <set comment="kpoint 57">
       <set comment="band 1">
        <r>  0.0246  0.0383  0.0000 </r>
        <r>  0.5908  0.0024  0.0000 </r>
       </set>
       <set comment="band 2">
        <r>  0.1269  0.0268  0.0000 </r>
        <r>  0.0329  0.3169  0.0000 </r>
       </set>
       <set comment="band 3">
        <r>  0.0368  0.0833  0.0000 </r>
        <r>  0.0015  0.4328  0.0000 </r>
       </set>
       <set comment="band 4">
        <r>  0.0043  0.0982  0.0000 </r>
        <r>  0.0000  0.4748  0.0000 </r>
       </set>
       <set comment="band 5">
        <r>  0.0037  0.0865  0.0000 </r>
        <r>  0.0337  0.1137  0.0000 </r>
       </set>
       <set comment="band 6">
        <r>  0.1812  0.0228  0.0000 </r>
        <r>  0.0043  0.1119  0.0000 </r>
       </set>
       <set comment="band 7">
        <r>  0.1312  0.0690  0.0000 </r>
        <r>  0.0606  0.2486  0.0000 </r>
       </set>
       <set comment="band 8">
        <r>  0.0145  0.1663  0.0000 </r>
        <r>  0.0015  0.2192  0.0000 </r>
       </set>
      </set>
      <set comment="kpoint 58">
       <set comment="band 1">
        <r>  0.0116  0.0417  0.0000 </r>
        <r>  0.6153  0.0008  0.0000 </r>
       </set>
       <set comment="band 2">
        <r>  0.1295  0.0423  0.0000 </r>
        <r>  0.0072  0.3149  0.0000 </r>
       </set>
       <set comment="band 3">
        <r>  0.0579  0.0727  0.0000 </r>
        <r>  0.0047  0.3915  0.0000 </r>
       </set>
       <set comment="band 4">
        <r>  0.0048  0.0981  0.0000 </r>
        <r>  0.0002  0.4763  0.0000 </r>
       </set>
       <set comment="band 5">
        <r>  0.0130  0.0674  0.0000 </r>
        <r>  0.0208  0.1352  0.0000 </r>
       </set>
       <set comment="band 6">
        <r>  0.1352  0.0271  0.0000 </r>
        <r>  0.0289  0.1836  0.0000 </r>
       </set>
       <set comment="band 7">
        <r>  0.1494  0.0602  0.0000 </r>
        <r>  0.0304  0.2620  0.0000 </r>
       </set>
       <set comment="band 8">
        <r>  0.0283  0.1459  0.0000 </r>
        <r>  0.0050  0.2065  0.0000 </r>
       </set>
      </set>
      <set comment="kpoint 59">
       <set comment="band 1">
        <r>  0.0109  0.0412  0.0000 </r>
        <r>  0.6183  0.0006  0.0000 </r>
       </set>
       <set comment="band 2">
        <r>  0.1190  0.0580  0.0000 </r>
        <r>  0.0023  0.3118  0.0000 </r>
       </set>
       <set comment="band 3">
        <r>  0.0722  0.0611  0.0000 </r>
        <r>  0.0053  0.3751  0.0000 </r>
       </set>
       <set comment="band 4">
        <r>  0.0051  0.0918  0.0000 </r>
        <r>  0.0005  0.4896  0.0000 </r>
       </set>
       <set comment="band 5">
        <r>  0.0187  0.0560  0.0000 </r>
        <r>  0.0093  0.1553  0.0000 </r>
       </set>
       <set comment="band 6">
        <r>  0.0995  0.0616  0.0000 </r>
        <r>  0.0639  0.1875  0.0000 </r>
       </set>
       <set comment="band 7">
        <r>  0.1682  0.0106  0.0000 </r>
        <r>  0.0027  0.3444  0.0000 </r>
       </set>
       <set comment="band 8">
        <r>  0.0271  0.1547  0.0000 </r>
        <r>  0.0067  0.1498  0.0000 </r>
       </set>
      </set>
      <set comment="kpoint 60">
       <set comment="band 1">
        <r>  0.0228  0.0374  0.0000 </r>
        <r>  0.5986  0.0017  0.0000 </r>
       </set>
       <set comment="band 2">
        <r>  0.1021  0.0600  0.0000 </r>
        <r>  0.0227  0.3036  0.0000 </r>
       </set>
       <set comment="band 3">
        <r>  0.0729  0.0611  0.0000 </r>
        <r>  0.0000  0.3908  0.0000 </r>
       </set>
       <set comment="band 4">
        <r>  0.0046  0.0813  0.0000 </r>
        <r>  0.0007  0.5120  0.0000 </r>
       </set>
       <set comment="band 5">
        <r>  0.0131  0.0533  0.0000 </r>
        <r>  0.0004  0.1863  0.0000 </r>
       </set>
       <set comment="band 6">
        <r>  0.0855  0.1019  0.0000 </r>
        <r>  0.1010  0.1390  0.0000 </r>
       </set>
       <set comment="band 7">
        <r>  0.1844  0.0085  0.0000 </r>
        <r>  0.0020  0.3013  0.0000 </r>
       </set>
       <set comment="band 8">
        <r>  0.0172  0.1514  0.0000 </r>
        <r>  0.0004  0.1417  0.0000 </r>
       </set>
      </set>
      <set comment="kpoint 61">
       <set comment="band 1">
        <r>  0.0136  0.0430  0.0000 </r>
        <r>  0.6063  0.0016  0.0000 </r>
       </set>
       <set comment="band 2">
        <r>  0.1541  0.0079  0.0000 </r>
        <r>  0.0214  0.3243  0.0000 </r>
       </set>
       <set comment="band 3">
        <r>  0.0176  0.0985  0.0000 </r>
        <r>  0.0000  0.4576  0.0000 </r>
       </set>
       <set comment="band 4">
        <r>  0.0012  0.1114  0.0000 </r>
        <r>  0.0002  0.4514  0.0000 </r>
       </set>
       <set comment="band 5">
        <r>  0.0002  0.0970  0.0000 </r>
        <r>  0.0397  0.0649  0.0000 </r>
       </set>
       <set comment="band 6">
        <r>  0.2252  0.0135  0.0000 </r>
        <r>  0.0000  0.0436  0.0000 </r>
       </set>
       <set comment="band 7">
        <r>  0.1239  0.0292  0.0000 </r>
        <r>  0.0329  0.3844  0.0000 </r>
       </set>
       <set comment="band 8">
        <r>  0.0091  0.1822  0.0000 </r>
        <r>  0.0077  0.2432  0.0000 </r>
       </set>
      </set>
      <set comment="kpoint 62">
       <set comment="band 1">
        <r>  0.0035  0.0454  0.0000 </r>
        <r>  0.6252  0.0004  0.0000 </r>
       </set>
       <set comment="band 2">
        <r>  0.1625  0.0116  0.0000 </r>
        <r>  0.0049  0.3309  0.0000 </r>
       </set>
       <set comment="band 3">
        <r>  0.0280  0.1026  0.0000 </r>
        <r>  0.0000  0.3943  0.0000 </r>
       </set>
       <set comment="band 4">
        <r>  0.0064  0.1072  0.0000 </r>
        <r>  0.0005  0.4535  0.0000 </r>
       </set>
       <set comment="band 5">
        <r>  0.0040  0.0784  0.0000 </r>
        <r>  0.0302  0.1059  0.0000 </r>
       </set>
       <set comment="band 6">
        <r>  0.1975  0.0085  0.0000 </r>
        <r>  0.0014  0.1049  0.0000 </r>
       </set>
       <set comment="band 7">
        <r>  0.1304  0.0408  0.0000 </r>
        <r>  0.0222  0.3694  0.0000 </r>
       </set>
       <set comment="band 8">
        <r>  0.0195  0.1660  0.0000 </r>
        <r>  0.0237  0.2138  0.0000 </r>
       </set>
      </set>
      <set comment="kpoint 63">
       <set comment="band 1">
        <r>  0.0028  0.0446  0.0000 </r>
        <r>  0.6293  0.0001  0.0000 </r>
       </set>
       <set comment="band 2">
        <r>  0.1819  0.0088  0.0000 </r>
        <r>  0.0001  0.3435  0.0000 </r>
       </set>
       <set comment="band 3">
        <r>  0.0175  0.1087  0.0000 </r>
        <r>  0.0004  0.3468  0.0000 </r>
       </set>
       <set comment="band 4">
        <r>  0.0064  0.1014  0.0000 </r>
        <r>  0.0006  0.4666  0.0000 </r>
       </set>
       <set comment="band 5">
        <r>  0.0133  0.0627  0.0000 </r>
        <r>  0.0198  0.1347  0.0000 </r>
       </set>
       <set comment="band 6">
        <r>  0.1441  0.0162  0.0000 </r>
        <r>  0.0168  0.1884  0.0000 </r>
       </set>
       <set comment="band 7">
        <r>  0.1718  0.0019  0.0000 </r>
        <r>  0.0001  0.4141  0.0000 </r>
       </set>
       <set comment="band 8">
        <r>  0.0092  0.1945  0.0000 </r>
        <r>  0.0400  0.0999  0.0000 </r>
       </set>
      </set>
      <set comment="kpoint 64">
       <set comment="band 1">
        <r>  0.0000  0.0475  0.0000 </r>
        <r>  0.6288  0.0000  0.0000 </r>
       </set>
       <set comment="band 2">
        <r>  0.1727  0.0036  0.0000 </r>
        <r>  0.0000  0.3276  0.0000 </r>
       </set>
       <set comment="band 3">
        <r>  0.0171  0.1015  0.0000 </r>
        <r>  0.0000  0.4526  0.0000 </r>
       </set>
       <set comment="band 4">
        <r>  0.0000  0.1195  0.0000 </r>
        <r>  0.0011  0.4339  0.0000 </r>
       </set>
       <set comment="band 5">
        <r>  0.0000  0.0931  0.0000 </r>
        <r>  0.0390  0.0593  0.0000 </r>
       </set>
       <set comment="band 6">
        <r>  0.2324  0.0044  0.0000 </r>
        <r>  0.0000  0.0424  0.0000 </r>
       </set>
       <set comment="band 7">
        <r>  0.1366  0.0002  0.0000 </r>
        <r>  0.0000  0.4860  0.0000 </r>
       </set>
       <set comment="band 8">
        <r>  0.0000  0.1989  0.0000 </r>
        <r>  0.0265  0.2012  0.0000 </r>
       </set>
      </set>
      <set comment="kpoint 65">
       <set comment="band 1">
        <r>  0.0345  0.0343  0.0000 </r>
        <r>  0.5764  0.0029  0.0000 </r>
       </set>
       <set comment="band 2">
        <r>  0.1052  0.0408  0.0000 </r>
        <r>  0.0431  0.3103  0.0000 </r>
       </set>
       <set comment="band 3">
        <r>  0.0464  0.0750  0.0000 </r>
        <r>  0.0000  0.4303  0.0000 </r>
       </set>
       <set comment="band 4">
        <r>  0.0083  0.0827  0.0000 </r>
        <r>  0.0013  0.4933  0.0000 </r>
       </set>
       <set comment="band 5">
        <r>  0.0001  0.0731  0.0000 </r>
        <r>  0.0265  0.1791  0.0000 </r>
       </set>
       <set comment="band 6">
        <r>  0.0204  0.1157  0.0000 </r>
        <r>  0.0754  0.1198  0.0000 </r>
       </set>
       <set comment="band 7">
        <r>  0.2722  0.0162  0.0000 </r>
        <r>  0.0159  0.1812  0.0000 </r>
       </set>
       <set comment="band 8">
        <r>  0.0159  0.1535  0.0000 </r>
        <r>  0.0001  0.1916  0.0000 </r>
       </set>
      </set>
      <set comment="kpoint 66">
       <set comment="band 1">
        <r>  0.0179  0.0393  0.0000 </r>
        <r>  0.6056  0.0014  0.0000 </r>
       </set>
       <set comment="band 2">
        <r>  0.1145  0.0513  0.0000 </r>
        <r>  0.0157  0.3091  0.0000 </r>
       </set>
       <set comment="band 3">
        <r>  0.0651  0.0639  0.0000 </r>
        <r>  0.0042  0.4043  0.0000 </r>
       </set>
       <set comment="band 4">
        <r>  0.0088  0.0933  0.0000 </r>
        <r>  0.0005  0.4673  0.0000 </r>
       </set>
       <set comment="band 5">
        <r>  0.0044  0.0497  0.0000 </r>
        <r>  0.0067  0.2018  0.0000 </r>
       </set>
       <set comment="band 6">
        <r>  0.0855  0.1017  0.0000 </r>
        <r>  0.0778  0.1224  0.0000 </r>
       </set>
       <set comment="band 7">
        <r>  0.1848  0.0260  0.0000 </r>
        <r>  0.0121  0.2388  0.0000 </r>
       </set>
       <set comment="band 8">
        <r>  0.0373  0.1306  0.0000 </r>
        <r>  0.0020  0.2129  0.0000 </r>
       </set>
      </set>
      <set comment="kpoint 67">
       <set comment="band 1">
        <r>  0.0109  0.0412  0.0000 </r>
        <r>  0.6184  0.0005  0.0000 </r>
       </set>
       <set comment="band 2">
        <r>  0.1183  0.0575  0.0000 </r>
        <r>  0.0003  0.3093  0.0000 </r>
       </set>
       <set comment="band 3">
        <r>  0.0734  0.0560  0.0000 </r>
        <r>  0.0088  0.3953  0.0000 </r>
       </set>
       <set comment="band 4">
        <r>  0.0082  0.0982  0.0000 </r>
        <r>  0.0000  0.4574  0.0000 </r>
       </set>
       <set comment="band 5">
        <r>  0.0075  0.0401  0.0000 </r>
        <r>  0.0001  0.2105  0.0000 </r>
       </set>
       <set comment="band 6">
        <r>  0.0964  0.0982  0.0000 </r>
        <r>  0.0795  0.1195  0.0000 </r>
       </set>
       <set comment="band 7">
        <r>  0.1574  0.0114  0.0000 </r>
        <r>  0.0023  0.3104  0.0000 </r>
       </set>
       <set comment="band 8">
        <r>  0.0524  0.1376  0.0000 </r>
        <r>  0.0076  0.1859  0.0000 </r>
       </set>
      </set>
      <set comment="kpoint 68">
       <set comment="band 1">
        <r>  0.0104  0.0426  0.0000 </r>
        <r>  0.6155  0.0011  0.0000 </r>
       </set>
       <set comment="band 2">
        <r>  0.1402  0.0274  0.0000 </r>
        <r>  0.0148  0.3250  0.0000 </r>
       </set>
       <set comment="band 3">
        <r>  0.0506  0.0783  0.0000 </r>
        <r>  0.0000  0.4134  0.0000 </r>
       </set>
       <set comment="band 4">
        <r>  0.0065  0.1111  0.0000 </r>
        <r>  0.0000  0.4216  0.0000 </r>
       </set>
       <set comment="band 5">
        <r>  0.0004  0.0621  0.0000 </r>
        <r>  0.0191  0.1672  0.0000 </r>
       </set>
       <set comment="band 6">
        <r>  0.1559  0.0190  0.0000 </r>
        <r>  0.0006  0.1478  0.0000 </r>
       </set>
       <set comment="band 7">
        <r>  0.1284  0.0993  0.0000 </r>
        <r>  0.0632  0.2009  0.0000 </r>
       </set>
       <set comment="band 8">
        <r>  0.0483  0.1175  0.0000 </r>
        <r>  0.0086  0.2700  0.0000 </r>
       </set>
      </set>
      <set comment="kpoint 69">
       <set comment="band 1">
        <r>  0.0032  0.0442  0.0000 </r>
        <r>  0.6291  0.0002  0.0000 </r>
       </set>
       <set comment="band 2">
        <r>  0.1540  0.0302  0.0000 </r>
        <r>  0.0017  0.3373  0.0000 </r>
       </set>
       <set comment="band 3">
        <r>  0.0501  0.0775  0.0000 </r>
        <r>  0.0014  0.3760  0.0000 </r>
       </set>
       <set comment="band 4">
        <r>  0.0099  0.1115  0.0000 </r>
        <r>  0.0002  0.4119  0.0000 </r>
       </set>
       <set comment="band 5">
        <r>  0.0029  0.0403  0.0000 </r>
        <r>  0.0065  0.2104  0.0000 </r>
       </set>
       <set comment="band 6">
        <r>  0.1004  0.0480  0.0000 </r>
        <r>  0.0264  0.1790  0.0000 </r>
       </set>
       <set comment="band 7">
        <r>  0.1418  0.0763  0.0000 </r>
        <r>  0.0345  0.2128  0.0000 </r>
       </set>
       <set comment="band 8">
        <r>  0.0860  0.1150  0.0000 </r>
        <r>  0.0224  0.2250  0.0000 </r>
       </set>
      </set>
      <set comment="kpoint 70">
       <set comment="band 1">
        <r>  0.0063  0.0429  0.0000 </r>
        <r>  0.6248  0.0005  0.0000 </r>
       </set>
       <set comment="band 2">
        <r>  0.1393  0.0452  0.0000 </r>
        <r>  0.0055  0.3273  0.0000 </r>
       </set>
       <set comment="band 3">
        <r>  0.0596  0.0677  0.0000 </r>
        <r>  0.0002  0.3745  0.0000 </r>
       </set>
       <set comment="band 4">
        <r>  0.0115  0.1037  0.0000 </r>
        <r>  0.0006  0.4309  0.0000 </r>
       </set>
       <set comment="band 5">
        <r>  0.0046  0.0336  0.0000 </r>
        <r>  0.0001  0.2252  0.0000 </r>
       </set>
       <set comment="band 6">
        <r>  0.0590  0.1112  0.0000 </r>
        <r>  0.0665  0.1329  0.0000 </r>
       </set>
       <set comment="band 7">
        <r>  0.1889  0.0018  0.0000 </r>
        <r>  0.0053  0.2869  0.0000 </r>
       </set>
       <set comment="band 8">
        <r>  0.0711  0.1314  0.0000 </r>
        <r>  0.0184  0.1897  0.0000 </r>
       </set>
      </set>
      <set comment="kpoint 71">
       <set comment="band 1">
        <r>  0.0000  0.0459  0.0000 </r>
        <r>  0.6325  0.0000  0.0000 </r>
       </set>
       <set comment="band 2">
        <r>  0.1675  0.0122  0.0000 </r>
        <r>  0.0000  0.3413  0.0000 </r>
       </set>
       <set comment="band 3">
        <r>  0.0453  0.0804  0.0000 </r>
        <r>  0.0000  0.4091  0.0000 </r>
       </set>
       <set comment="band 4">
        <r>  0.0000  0.1300  0.0000 </r>
        <r>  0.0008  0.3822  0.0000 </r>
       </set>
       <set comment="band 5">
        <r>  0.0000  0.0578  0.0000 </r>
        <r>  0.0186  0.1695  0.0000 </r>
       </set>
       <set comment="band 6">
        <r>  0.1736  0.0088  0.0000 </r>
        <r>  0.0000  0.1458  0.0000 </r>
       </set>
       <set comment="band 7">
        <r>  0.1696  0.0001  0.0000 </r>
        <r>  0.0000  0.4187  0.0000 </r>
       </set>
       <set comment="band 8">
        <r>  0.0000  0.2177  0.0000 </r>
        <r>  0.0680  0.0801  0.0000 </r>
       </set>
      </set>
      <set comment="kpoint 72">
       <set comment="band 1">
        <r>  0.0000  0.0451  0.0000 </r>
        <r>  0.6344  0.0000  0.0000 </r>
       </set>
       <set comment="band 2">
        <r>  0.2227  0.0000  0.0000 </r>
        <r>  0.0000  0.3583  0.0000 </r>
       </set>
       <set comment="band 3">
        <r>  0.0000  0.0872  0.0000 </r>
        <r>  0.0000  0.3797  0.0000 </r>
       </set>
       <set comment="band 4">
        <r>  0.0000  0.1341  0.0000 </r>
        <r>  0.0000  0.3643  0.0000 </r>
       </set>
       <set comment="band 5">
        <r>  0.0000  0.0263  0.0000 </r>
        <r>  0.0000  0.2461  0.0000 </r>
       </set>
       <set comment="band 6">
        <r>  0.0000  0.0088  0.0000 </r>
        <r>  0.0000  0.2439  0.0000 </r>
       </set>
       <set comment="band 7">
        <r>  0.0000  0.2435  0.0000 </r>
        <r>  0.0933  0.0000  0.0000 </r>
       </set>
       <set comment="band 8">
        <r>  0.3323  0.0000  0.0000 </r>
        <r>  0.0000  0.3371  0.0000 </r>
       </set>
      </set>
     </set>
    </set>
   </array>
  </projected>
 </calculation>
 <structure name="finalpos" >
  <crystal>
   <varray name="basis" >
    <v>       0.00000000       2.20063430       2.20063430 </v>
    <v>       2.20063430       0.00000000       2.20063430 </v>
    <v>       2.20063430       2.20063430       0.00000000 </v>
   </varray>
   <i name="volume">     21.31442524 </i>
   <varray name="rec_basis" >
    <v>      -0.22720722       0.22720722       0.22720722 </v>
    <v>       0.22720722      -0.22720722       0.22720722 </v>
    <v>       0.22720722       0.22720722      -0.22720722 </v>
   </varray>
  </crystal>
  <varray name="positions" >
   <v>       0.00000000       0.00000000       0.00000000 </v>
   <v>       0.25000000       0.25000000       0.25000000 </v>
  </varray>
 </structure>
</modeling>
