AlN                                     
           1
     0.000000    2.200634    2.200634
     2.200634    0.000000    2.200634
     2.200634    2.200634    0.000000
   Al   N 
   1   1
Direct configuration=     1
   0.00000000  0.00000000  0.00000000
   0.25000000  0.25000000  0.25000000
