   2   2   1   0
  0.3673050E+02  0.4701004E-09  0.4701004E-09  0.4701004E-09  0.5000000E-15
  1.000000000000000E-004
  CAR 
 InSb                                    
     12.03132745     -7.71638381   11      3.42551791      1.00000000
     -7.716  0.0000E+00  0.0000E+00
     -5.742  0.2661E-03  0.7127E-02
     -3.767  0.0000E+00  0.2000E-01
     -1.792  0.1503E-02  0.2707E-01
      0.183  0.2251E-10  0.3801E-01
      2.157  0.1526E-02  0.6899E-01
      4.132  0.3219E-06  0.8051E-01
      6.107  0.3066E-03  0.1045E+00
      8.082  0.2374E-03  0.1338E+00
     10.057  0.4747E-03  0.1584E+00
     12.031  0.0000E+00  0.1600E+00
     12.03132745     -7.71638381   11      3.42551791      1.00000000
     -7.716  0.0000E+00  0.0000E+00  0.0000E+00
     -5.742  0.3371E-02  0.1313E-02  0.2273E-03
     -3.767  0.0000E+00  0.0000E+00  0.0000E+00
     -1.792  0.8064E-01  0.5850E-02  0.3474E-03
      0.183  0.8023E-09  0.1720E-09  0.5024E-10
      2.157  0.3959E-03  0.4073E-01  0.3858E-02
      4.132  0.7474E-05  0.4003E-05  0.6669E-06
      6.107  0.4861E-03  0.1218E-01  0.6252E-03
      8.082  0.2175E-04  0.5361E-02  0.2551E-02
     10.057  0.2704E-03  0.1719E-01  0.3349E-02
     12.031  0.0000E+00  0.0000E+00  0.0000E+00
     12.03132745     -7.71638381   11      3.42551791      1.00000000
     -7.716  0.0000E+00  0.0000E+00  0.0000E+00
     -5.742  0.1294E-01  0.8069E-04  0.4389E-05
     -3.767  0.0000E+00  0.0000E+00  0.0000E+00
     -1.792  0.4981E-02  0.1648E-01  0.4524E-03
      0.183  0.3174E-09  0.2849E-09  0.6168E-11
      2.157  0.1389E-03  0.4356E-01  0.3942E-03
      4.132  0.3859E-05  0.5001E-05  0.1786E-06
      6.107  0.1476E-02  0.9781E-03  0.1008E-02
      8.082  0.1324E-02  0.2571E-02  0.4520E-03
     10.057  0.2443E-03  0.7810E-02  0.2303E-02
     12.031  0.0000E+00  0.0000E+00  0.0000E+00
