    2    2  100    1
  0.3673050E+02  0.4701004E-09  0.4701004E-09  0.4701004E-09  0.5000000E-15
  1.000000000000000E-004
  CAR 
 InSb                                    
      8     29      8
 
  0.0000000E+00  0.0000000E+00  0.0000000E+00  0.1953125E-02
    1       -6.818761   1.000000
    2        2.840741   1.000000
    3        3.422472   0.666676
    4        3.422472   0.666669
    5        3.422472   0.666655
    6        6.409370   0.000000
    7        6.409370   0.000000
    8        6.409370   0.000000
 
  0.1250000E+00 -0.7091422E-18  0.2845894E-17  0.1562500E-01
    1       -6.699485   1.000000
    2        1.504279   1.000000
    3        3.242080   1.000000
    4        3.242080   1.000000
    5        4.153310   0.000000
    6        6.667219   0.000000
    7        6.667219   0.000000
    8        6.699083   0.000000
 
  0.2500000E+00 -0.1418284E-17  0.5691788E-17  0.1562500E-01
    1       -6.367513   1.000000
    2       -0.075940   1.000000
    3        2.898142   1.000000
    4        2.898143   1.000000
    5        4.155179   0.000000
    6        7.087610   0.000000
    7        7.087610   0.000000
    8        7.923019   0.000000
 
  0.3750000E+00 -0.2127427E-17  0.8537682E-17  0.1562500E-01
    1       -5.935835   1.000000
    2       -1.321310   1.000000
    3        2.628618   1.000000
    4        2.628618   1.000000
    5        3.943626   0.000000
    6        7.235451   0.000000
    7        7.235452   0.000000
    8        9.373108   0.000000
 
  0.5000000E+00 -0.2836569E-17  0.1138358E-16  0.7812500E-02
    1       -5.704047   1.000000
    2       -1.833151   1.000000
    3        2.530954   1.000000
    4        2.530955   1.000000
    5        3.856220   0.000000
    6        7.233510   0.000000
    7        7.233510   0.000000
    8        9.539335   0.000000
 
  0.1250000E+00  0.1250000E+00  0.8547008E-17  0.1171875E-01
    1       -6.659094   1.000000
    2        1.395589   1.000000
    3        2.936437   1.000000
    4        2.936437   1.000000
    5        4.752551   0.000000
    6        5.937095   0.000000
    7        7.117934   0.000000
    8        7.117934   0.000000
 
  0.2500000E+00  0.1250000E+00  0.7119398E-17  0.4687500E-01
    1       -6.394982   1.000000
    2        0.220434   1.000000
    3        2.519466   1.000000
    4        2.563754   1.000000
    5        5.049035   0.000000
    6        6.104367   0.000000
    7        7.686722   0.000000
    8        7.791892   0.000000
 
  0.3750000E+00  0.1250000E+00  0.9965292E-17  0.4687500E-01
    1       -5.982640   1.000000
    2       -1.019838   1.000000
    3        2.049257   1.000000
    4        2.331735   1.000000
    5        4.897218   0.000000
    6        6.727364   0.000000
    7        7.862328   0.000000
    8        8.371063   0.000000
 
  0.5000000E+00  0.1250000E+00  0.1281119E-16  0.4687500E-01
    1       -5.648908   1.000000
    2       -1.766030   1.000000
    3        1.724725   1.000000
    4        2.312884   1.000000
    5        4.754262   0.000000
    6        6.984826   0.000000
    7        7.708555   0.000000
    8        9.442364   0.000000
 
 -0.3750000E+00  0.1250000E+00 -0.7110073E-17  0.4687500E-01
    1       -5.731058   1.000000
    2       -1.596299   1.000000
    3        1.638873   1.000000
    4        2.507338   1.000000
    5        4.751222   0.000000
    6        7.165033   0.000000
    7        7.496724   0.000000
    8        9.404996   0.000000
 
 -0.2500000E+00  0.1250000E+00 -0.4264178E-17  0.4687500E-01
    1       -6.130950   1.000000
    2       -0.635151   1.000000
    3        1.845241   1.000000
    4        2.854725   1.000000
    5        4.849262   0.000000
    6        7.191797   0.000000
    7        7.223813   0.000000
    8        8.183591   0.000000
 
 -0.1250000E+00  0.1250000E+00 -0.1418284E-17  0.2343750E-01
    1       -6.507710   1.000000
    2        0.595651   1.000000
    3        2.423305   1.000000
    4        3.193989   1.000000
    5        4.724747   0.000000
    6        6.667011   0.000000
    7        6.762749   0.000000
    8        7.624247   0.000000
 
  0.2500000E+00  0.2500000E+00  0.1709402E-16  0.1171875E-01
    1       -6.205832   1.000000
    2       -0.199155   1.000000
    3        2.158774   1.000000
    4        2.158774   1.000000
    5        5.037411   0.000000
    6        5.817778   0.000000
    7        8.544917   0.000000
    8        8.544918   0.000000
 
  0.3750000E+00  0.2500000E+00  0.1139290E-16  0.4687500E-01
    1       -5.851036   1.000000
    2       -1.049622   1.000000
    3        1.629639   1.000000
    4        1.904708   1.000000
    5        5.152370   0.000000
    6        5.967869   0.000000
    7        8.479658   0.000000
    8        9.018924   0.000000
 
  0.5000000E+00  0.2500000E+00  0.1423880E-16  0.4687500E-01
    1       -5.495606   1.000000
    2       -1.735609   1.000000
    3        1.041210   1.000000
    4        1.883385   1.000000
    5        5.185000   0.000000
    6        6.962118   0.000000
    7        8.395792   0.000000
    8        8.880209   0.000000
 
 -0.3750000E+00  0.2500000E+00 -0.5682463E-17  0.4687500E-01
    1       -5.446267   1.000000
    2       -1.815323   1.000000
    3        0.756584   1.000000
    4        2.098761   1.000000
    5        5.259245   0.000000
    6        7.588786   0.000000
    7        8.475605   0.000000
    8        9.087780   0.000000
 
 -0.2500000E+00  0.2500000E+00 -0.2836569E-17  0.2343750E-01
    1       -5.757074   1.000000
    2       -1.289379   1.000000
    3        0.975256   1.000000
    4        2.484384   1.000000
    5        5.329742   0.000000
    6        7.763921   0.000000
    7        7.851479   0.000000
    8        8.036325   0.000000
 
  0.3750000E+00  0.3750000E+00  0.2564102E-16  0.1171875E-01
    1       -5.579588   1.000000
    2       -1.534516   1.000000
    3        1.604979   1.000000
    4        1.604979   1.000000
    5        4.745048   0.000000
    6        5.352467   0.000000
    7       10.115419   0.000000
    8       10.115419   0.000000
 
  0.5000000E+00  0.3750000E+00  0.4107702E-16  0.4687500E-01
    1       -5.302418   1.000000
    2       -1.975256   1.000000
    3        1.138461   1.000000
    4        1.537448   1.000000
    5        4.938368   0.000000
    6        5.617699   0.000000
    7        9.879291   0.000000
    8       10.303401   0.000000
 
 -0.3750000E+00  0.3750000E+00 -0.4254853E-17  0.2343750E-01
    1       -5.241328   1.000000
    2       -2.031590   1.000000
    3        0.643903   1.000000
    4        1.719750   1.000000
    5        5.085098   0.000000
    6        7.012230   0.000000
    7        9.430901   0.000000
    8        9.619317   0.000000
 
  0.5000000E+00  0.5000000E+00  0.3418803E-16  0.5859375E-02
    1       -5.204938   1.000000
    2       -2.150573   1.000000
    3        1.410450   1.000000
    4        1.410450   1.000000
    5        4.799173   0.000000
    6        4.906921   0.000000
    7       11.133704   0.000000
    8       11.133704   0.000000
 
  0.3750000E+00  0.2500000E+00  0.1250000E+00  0.4687500E-01
    1       -6.083401   1.000000
    2       -0.593748   1.000000
    3        1.661489   1.000000
    4        2.430593   1.000000
    5        5.496368   0.000000
    6        6.175826   0.000000
    7        7.810375   0.000000
    8        8.344517   0.000000
 
  0.5000000E+00  0.2500000E+00  0.1250000E+00  0.9375000E-01
    1       -5.684487   1.000000
    2       -1.448665   1.000000
    3        1.165120   1.000000
    4        2.119278   1.000000
    5        5.563643   0.000000
    6        6.797199   0.000000
    7        7.846144   0.000000
    8        8.845557   0.000000
 
 -0.3750000E+00  0.2500000E+00  0.1250000E+00  0.4687500E-01
    1       -5.474397   1.000000
    2       -1.840728   1.000000
    3        1.020393   1.000000
    4        1.976171   1.000000
    5        5.526208   0.000000
    6        6.904057   0.000000
    7        8.325100   0.000000
    8        9.343740   0.000000
 
  0.5000000E+00  0.3750000E+00  0.1250000E+00  0.4687500E-01
    1       -5.516237   1.000000
    2       -1.627023   1.000000
    3        1.189000   1.000000
    4        1.593882   1.000000
    5        5.557497   0.000000
    6        5.941956   0.000000
    7        8.357735   0.000000
    8       10.019525   0.000000
 
 -0.3750000E+00  0.3750000E+00  0.1250000E+00  0.9375000E-01
    1       -5.282215   1.000000
    2       -1.963839   1.000000
    3        0.770072   1.000000
    4        1.471880   1.000000
    5        5.776073   0.000000
    6        7.025138   0.000000
    7        8.114826   0.000000
    8        9.435953   0.000000
 
 -0.2500000E+00  0.3750000E+00  0.1250000E+00  0.4687500E-01
    1       -5.370542   1.000000
    2       -1.840897   1.000000
    3        0.674234   1.000000
    4        1.714236   1.000000
    5        5.907121   0.000000
    6        7.560837   0.000000
    7        7.657924   0.000000
    8        9.349078   0.000000
 
 -0.3750000E+00  0.5000000E+00  0.1250000E+00  0.2343750E-01
    1       -5.194698   1.000000
    2       -2.104206   1.000000
    3        1.115942   1.000000
    4        1.191719   1.000000
    5        5.547950   0.000000
    6        5.671643   0.000000
    7        9.663892   0.000000
    8        9.806265   0.000000
 
 -0.2500000E+00  0.5000000E+00  0.2500000E+00  0.1171875E-01
    1       -5.184373   1.000000
    2       -2.054216   1.000000
    3        0.866654   1.000000
    4        1.009023   1.000000
    5        6.676311   0.000000
    6        7.397650   0.000000
    7        7.512832   0.000000
    8        8.359428   0.000000
