       N       E                     dE             d eps       ncg     rms          rms(c)
DAV:   1     0.147735246934E+02    0.14774E+02   -0.22213E+03   464   0.533E+02
DAV:   2    -0.651855944572E+01   -0.21292E+02   -0.20595E+02   664   0.766E+01
DAV:   3    -0.703589739904E+01   -0.51734E+00   -0.51731E+00   560   0.153E+01
DAV:   4    -0.703934340983E+01   -0.34460E-02   -0.34459E-02   680   0.156E+00
DAV:   5    -0.703935843119E+01   -0.15021E-04   -0.15021E-04   616   0.805E-02
DAV:   6    -0.703935858126E+01   -0.15007E-06   -0.15007E-06   664   0.569E-03
DAV:   7    -0.703935858449E+01   -0.32272E-08   -0.27977E-08   632   0.401E-04
DAV:   8    -0.703935858472E+01   -0.23124E-09   -0.12326E-09   560   0.565E-05    0.390E+00
DAV:   9    -0.697868695726E+01    0.60672E-01   -0.68330E-02   496   0.105E+00    0.307E+00
DAV:  10    -0.693742420053E+01    0.41263E-01   -0.26046E-01   560   0.214E+00    0.103E+00
DAV:  11    -0.693240734068E+01    0.50169E-02   -0.32158E-02   480   0.968E-01    0.313E-01
DAV:  12    -0.693269404044E+01   -0.28670E-03   -0.16330E-03   608   0.292E-01    0.145E-01
DAV:  13    -0.693268520006E+01    0.88404E-05   -0.12027E-04   576   0.527E-02    0.623E-02
DAV:  14    -0.693269485509E+01   -0.96550E-05   -0.71485E-05   528   0.397E-02    0.167E-02
DAV:  15    -0.693269590471E+01   -0.10496E-05   -0.42152E-06   536   0.128E-02    0.101E-02
DAV:  16    -0.693269483779E+01    0.10669E-05   -0.37746E-06   592   0.898E-03    0.203E-03
DAV:  17    -0.693269495535E+01   -0.11756E-06   -0.12919E-07   416   0.241E-03    0.136E-03
DAV:  18    -0.693269484659E+01    0.10875E-06   -0.33978E-08   296   0.109E-03    0.140E-03
DAV:  19    -0.693269486370E+01   -0.17101E-07   -0.16784E-08   232   0.652E-04
   1 F= -.69326949E+01 E0= -.69326798E+01  d E =-.693269E+01
