PROCAR new format
# of k-points:   29         # of bands:    8         # of ions:    2

 k-point     1 :    0.00000000 0.00000000 0.00000000     weight = 0.00195312

band     1 # energy   -6.81876057 # occ.  2.00000000
 
ion      s      p      d    tot
    1  0.252  0.000  0.000  0.252
    2  0.403  0.000  0.000  0.403
tot    0.655  0.000  0.000  0.655
 
band     2 # energy    2.84074069 # occ.  2.00000000
 
ion      s      p      d    tot
    1  0.520  0.000  0.000  0.520
    2  0.310  0.000  0.000  0.310
tot    0.830  0.000  0.000  0.830
 
band     3 # energy    3.42247203 # occ.  1.33335110
 
ion      s      p      d    tot
    1  0.000  0.145  0.079  0.224
    2  0.000  0.385  0.003  0.388
tot    0.000  0.531  0.082  0.613
 
band     4 # energy    3.42247215 # occ.  1.33333881
 
ion      s      p      d    tot
    1  0.000  0.145  0.079  0.224
    2  0.000  0.385  0.003  0.388
tot    0.000  0.531  0.082  0.613
 
band     5 # energy    3.42247243 # occ.  1.33331006
 
ion      s      p      d    tot
    1  0.000  0.145  0.079  0.224
    2  0.000  0.385  0.003  0.388
tot    0.000  0.531  0.082  0.613
 
band     6 # energy    6.40936972 # occ.  0.00000000
 
ion      s      p      d    tot
    1  0.000  0.501  0.015  0.516
    2  0.000  0.033  0.047  0.081
tot    0.000  0.535  0.063  0.597
 
band     7 # energy    6.40936977 # occ.  0.00000000
 
ion      s      p      d    tot
    1  0.000  0.501  0.015  0.516
    2  0.000  0.033  0.047  0.081
tot    0.000  0.535  0.063  0.597
 
band     8 # energy    6.40936978 # occ.  0.00000000
 
ion      s      p      d    tot
    1  0.000  0.501  0.015  0.516
    2  0.000  0.033  0.047  0.081
tot    0.000  0.535  0.063  0.597
 

 k-point     2 :    0.12500000-0.00000000 0.00000000     weight = 0.01562500

band     1 # energy   -6.69948498 # occ.  2.00000000
 
ion      s      p      d    tot
    1  0.241  0.005  0.001  0.247
    2  0.409  0.001  0.000  0.410
tot    0.650  0.006  0.001  0.657
 
band     2 # energy    1.50427910 # occ.  2.00000000
 
ion      s      p      d    tot
    1  0.316  0.080  0.028  0.424
    2  0.165  0.137  0.002  0.304
tot    0.480  0.217  0.031  0.728
 
band     3 # energy    3.24207977 # occ.  2.00000000
 
ion      s      p      d    tot
    1  0.000  0.175  0.068  0.243
    2  0.000  0.364  0.003  0.368
tot    0.000  0.539  0.071  0.611
 
band     4 # energy    3.24208009 # occ.  2.00000000
 
ion      s      p      d    tot
    1  0.000  0.175  0.068  0.243
    2  0.000  0.364  0.003  0.368
tot    0.000  0.539  0.071  0.611
 
band     5 # energy    4.15331043 # occ.  0.00000000
 
ion      s      p      d    tot
    1  0.224  0.119  0.024  0.367
    2  0.121  0.181  0.004  0.306
tot    0.345  0.300  0.028  0.673
 
band     6 # energy    6.66721905 # occ.  0.00000000
 
ion      s      p      d    tot
    1  0.000  0.471  0.026  0.497
    2  0.000  0.054  0.047  0.101
tot    0.000  0.525  0.073  0.598
 
band     7 # energy    6.66721910 # occ.  0.00000000
 
ion      s      p      d    tot
    1  0.000  0.471  0.026  0.497
    2  0.000  0.054  0.047  0.101
tot    0.000  0.525  0.073  0.598
 
band     8 # energy    6.69908296 # occ.  0.00000000
 
ion      s      p      d    tot
    1  0.028  0.341  0.037  0.406
    2  0.024  0.093  0.037  0.154
tot    0.052  0.434  0.074  0.561
 

 k-point     3 :    0.25000000-0.00000000 0.00000000     weight = 0.01562500

band     1 # energy   -6.36751274 # occ.  2.00000000
 
ion      s      p      d    tot
    1  0.208  0.020  0.003  0.231
    2  0.429  0.002  0.000  0.432
tot    0.637  0.022  0.003  0.663
 
band     2 # energy   -0.07593984 # occ.  2.00000000
 
ion      s      p      d    tot
    1  0.326  0.098  0.018  0.442
    2  0.119  0.132  0.002  0.253
tot    0.445  0.230  0.020  0.695
 
band     3 # energy    2.89814224 # occ.  2.00000000
 
ion      s      p      d    tot
    1  0.000  0.219  0.050  0.269
    2  0.000  0.336  0.003  0.340
tot    0.000  0.555  0.053  0.609
 
band     4 # energy    2.89814252 # occ.  2.00000000
 
ion      s      p      d    tot
    1  0.000  0.219  0.050  0.269
    2  0.000  0.336  0.003  0.340
tot    0.000  0.555  0.053  0.609
 
band     5 # energy    4.15517939 # occ.  0.00000000
 
ion      s      p      d    tot
    1  0.252  0.137  0.012  0.401
    2  0.117  0.093  0.010  0.220
tot    0.369  0.230  0.022  0.621
 
band     6 # energy    7.08760974 # occ.  0.00000000
 
ion      s      p      d    tot
    1  0.000  0.407  0.048  0.455
    2  0.000  0.073  0.048  0.121
tot    0.000  0.480  0.096  0.576
 
band     7 # energy    7.08760984 # occ.  0.00000000
 
ion      s      p      d    tot
    1  0.000  0.407  0.048  0.455
    2  0.000  0.073  0.048  0.121
tot    0.000  0.480  0.096  0.576
 
band     8 # energy    7.92301901 # occ.  0.00000000
 
ion      s      p      d    tot
    1  0.056  0.193  0.048  0.297
    2  0.049  0.183  0.023  0.255
tot    0.105  0.376  0.071  0.552
 

 k-point     4 :    0.37500000-0.00000000 0.00000000     weight = 0.01562500

band     1 # energy   -5.93583465 # occ.  2.00000000
 
ion      s      p      d    tot
    1  0.155  0.039  0.007  0.201
    2  0.469  0.002  0.000  0.471
tot    0.624  0.041  0.007  0.672
 
band     2 # energy   -1.32130957 # occ.  2.00000000
 
ion      s      p      d    tot
    1  0.375  0.094  0.006  0.476
    2  0.071  0.123  0.002  0.196
tot    0.446  0.217  0.008  0.671
 
band     3 # energy    2.62861820 # occ.  2.00000000
 
ion      s      p      d    tot
    1  0.000  0.246  0.038  0.284
    2  0.000  0.322  0.003  0.324
tot    0.000  0.568  0.041  0.608
 
band     4 # energy    2.62861847 # occ.  2.00000000
 
ion      s      p      d    tot
    1  0.000  0.246  0.038  0.284
    2  0.000  0.322  0.003  0.324
tot    0.000  0.568  0.041  0.608
 
band     5 # energy    3.94362619 # occ.  0.00000000
 
ion      s      p      d    tot
    1  0.269  0.116  0.016  0.401
    2  0.119  0.066  0.012  0.197
tot    0.388  0.182  0.028  0.599
 
band     6 # energy    7.23545145 # occ.  0.00000000
 
ion      s      p      d    tot
    1  0.000  0.332  0.075  0.406
    2  0.000  0.068  0.051  0.118
tot    0.000  0.399  0.125  0.525
 
band     7 # energy    7.23545159 # occ.  0.00000000
 
ion      s      p      d    tot
    1  0.000  0.332  0.075  0.406
    2  0.000  0.068  0.051  0.118
tot    0.000  0.399  0.125  0.525
 
band     8 # energy    9.37310803 # occ.  0.00000000
 
ion      s      p      d    tot
    1  0.011  0.130  0.057  0.198
    2  0.017  0.200  0.009  0.226
tot    0.028  0.329  0.066  0.424
 

 k-point     5 :    0.50000000-0.00000000 0.00000000     weight = 0.00781250

band     1 # energy   -5.70404714 # occ.  2.00000000
 
ion      s      p      d    tot
    1  0.118  0.049  0.010  0.177
    2  0.500  0.001  0.000  0.501
tot    0.618  0.051  0.010  0.678
 
band     2 # energy   -1.83315074 # occ.  2.00000000
 
ion      s      p      d    tot
    1  0.412  0.088  0.001  0.500
    2  0.037  0.121  0.002  0.160
tot    0.449  0.209  0.002  0.660
 
band     3 # energy    2.53095437 # occ.  2.00000000
 
ion      s      p      d    tot
    1  0.000  0.255  0.034  0.288
    2  0.000  0.318  0.002  0.320
tot    0.000  0.572  0.036  0.608
 
band     4 # energy    2.53095463 # occ.  2.00000000
 
ion      s      p      d    tot
    1  0.000  0.255  0.034  0.288
    2  0.000  0.318  0.002  0.320
tot    0.000  0.572  0.036  0.608
 
band     5 # energy    3.85622016 # occ.  0.00000000
 
ion      s      p      d    tot
    1  0.275  0.106  0.019  0.400
    2  0.120  0.061  0.013  0.194
tot    0.396  0.166  0.031  0.594
 
band     6 # energy    7.23350956 # occ.  0.00000000
 
ion      s      p      d    tot
    1  0.000  0.302  0.085  0.387
    2  0.000  0.063  0.052  0.115
tot    0.000  0.365  0.137  0.502
 
band     7 # energy    7.23350972 # occ.  0.00000000
 
ion      s      p      d    tot
    1  0.000  0.302  0.085  0.387
    2  0.000  0.063  0.052  0.115
tot    0.000  0.365  0.137  0.502
 
band     8 # energy    9.53933469 # occ.  0.00000000
 
ion      s      p      d    tot
    1  0.005  0.065  0.055  0.125
    2  0.001  0.080  0.005  0.086
tot    0.005  0.145  0.060  0.210
 

 k-point     6 :    0.12500000 0.12500000 0.00000000     weight = 0.01171875

band     1 # energy   -6.65909396 # occ.  2.00000000
 
ion      s      p      d    tot
    1  0.237  0.007  0.001  0.245
    2  0.411  0.001  0.000  0.412
tot    0.648  0.008  0.001  0.657
 
band     2 # energy    1.39558895 # occ.  2.00000000
 
ion      s      p      d    tot
    1  0.353  0.060  0.029  0.442
    2  0.180  0.125  0.003  0.308
tot    0.533  0.185  0.031  0.749
 
band     3 # energy    2.93643654 # occ.  2.00000000
 
ion      s      p      d    tot
    1  0.000  0.206  0.055  0.261
    2  0.000  0.332  0.004  0.336
tot    0.000  0.539  0.059  0.597
 
band     4 # energy    2.93643672 # occ.  2.00000000
 
ion      s      p      d    tot
    1  0.000  0.206  0.055  0.261
    2  0.000  0.332  0.004  0.336
tot    0.000  0.539  0.059  0.597
 
band     5 # energy    4.75255139 # occ.  0.00000000
 
ion      s      p      d    tot
    1  0.212  0.042  0.046  0.301
    2  0.092  0.277  0.000  0.369
tot    0.304  0.319  0.047  0.670
 
band     6 # energy    5.93709494 # occ.  0.00000000
 
ion      s      p      d    tot
    1  0.010  0.439  0.011  0.460
    2  0.033  0.006  0.038  0.077
tot    0.043  0.444  0.049  0.537
 
band     7 # energy    7.11793445 # occ.  0.00000000
 
ion      s      p      d    tot
    1  0.000  0.436  0.040  0.476
    2  0.000  0.089  0.048  0.137
tot    0.000  0.524  0.088  0.612
 
band     8 # energy    7.11793448 # occ.  0.00000000
 
ion      s      p      d    tot
    1  0.000  0.436  0.040  0.476
    2  0.000  0.089  0.048  0.137
tot    0.000  0.524  0.088  0.612
 

 k-point     7 :    0.25000000 0.12500000 0.00000000     weight = 0.04687500

band     1 # energy   -6.39498221 # occ.  2.00000000
 
ion      s      p      d    tot
    1  0.211  0.019  0.003  0.233
    2  0.427  0.002  0.000  0.429
tot    0.637  0.022  0.003  0.662
 
band     2 # energy    0.22043428 # occ.  2.00000000
 
ion      s      p      d    tot
    1  0.356  0.076  0.022  0.455
    2  0.141  0.127  0.003  0.270
tot    0.497  0.203  0.025  0.725
 
band     3 # energy    2.51946561 # occ.  2.00000000
 
ion      s      p      d    tot
    1  0.027  0.223  0.039  0.289
    2  0.010  0.285  0.004  0.300
tot    0.037  0.508  0.043  0.588
 
band     4 # energy    2.56375407 # occ.  2.00000000
 
ion      s      p      d    tot
    1  0.000  0.239  0.040  0.279
    2  0.000  0.308  0.003  0.312
tot    0.000  0.548  0.044  0.591
 
band     5 # energy    5.04903531 # occ.  0.00000000
 
ion      s      p      d    tot
    1  0.213  0.069  0.038  0.319
    2  0.069  0.228  0.007  0.304
tot    0.282  0.296  0.045  0.623
 
band     6 # energy    6.10436710 # occ.  0.00000000
 
ion      s      p      d    tot
    1  0.016  0.397  0.020  0.433
    2  0.048  0.032  0.033  0.113
tot    0.064  0.429  0.053  0.546
 
band     7 # energy    7.68672233 # occ.  0.00000000
 
ion      s      p      d    tot
    1  0.000  0.389  0.058  0.447
    2  0.000  0.109  0.050  0.159
tot    0.000  0.499  0.108  0.607
 
band     8 # energy    7.79189189 # occ.  0.00000000
 
ion      s      p      d    tot
    1  0.011  0.293  0.064  0.367
    2  0.010  0.122  0.044  0.176
tot    0.021  0.415  0.108  0.543
 

 k-point     8 :    0.37500000 0.12500000 0.00000000     weight = 0.04687500

band     1 # energy   -5.98264003 # occ.  2.00000000
 
ion      s      p      d    tot
    1  0.161  0.038  0.006  0.205
    2  0.462  0.003  0.000  0.465
tot    0.623  0.041  0.006  0.670
 
band     2 # energy   -1.01983782 # occ.  2.00000000
 
ion      s      p      d    tot
    1  0.392  0.081  0.010  0.484
    2  0.091  0.121  0.002  0.213
tot    0.483  0.202  0.013  0.697
 
band     3 # energy    2.04925724 # occ.  2.00000000
 
ion      s      p      d    tot
    1  0.051  0.226  0.029  0.305
    2  0.019  0.250  0.004  0.273
tot    0.069  0.476  0.032  0.578
 
band     4 # energy    2.33173539 # occ.  2.00000000
 
ion      s      p      d    tot
    1  0.000  0.259  0.031  0.290
    2  0.000  0.300  0.003  0.302
tot    0.000  0.558  0.034  0.592
 
band     5 # energy    4.89721761 # occ.  0.00000000
 
ion      s      p      d    tot
    1  0.195  0.121  0.031  0.347
    2  0.075  0.170  0.011  0.256
tot    0.270  0.290  0.043  0.603
 
band     6 # energy    6.72736361 # occ.  0.00000000
 
ion      s      p      d    tot
    1  0.021  0.328  0.047  0.396
    2  0.022  0.065  0.037  0.125
tot    0.043  0.393  0.084  0.521
 
band     7 # energy    7.86232777 # occ.  0.00000000
 
ion      s      p      d    tot
    1  0.000  0.325  0.081  0.406
    2  0.000  0.098  0.053  0.151
tot    0.000  0.423  0.134  0.557
 
band     8 # energy    8.37106318 # occ.  0.00000000
 
ion      s      p      d    tot
    1  0.016  0.155  0.092  0.262
    2  0.018  0.117  0.040  0.175
tot    0.034  0.272  0.132  0.438
 

 k-point     9 :    0.50000000 0.12500000 0.00000000     weight = 0.04687500

band     1 # energy   -5.64890803 # occ.  2.00000000
 
ion      s      p      d    tot
    1  0.108  0.054  0.010  0.172
    2  0.504  0.002  0.000  0.506
tot    0.613  0.055  0.010  0.678
 
band     2 # energy   -1.76603003 # occ.  2.00000000
 
ion      s      p      d    tot
    1  0.441  0.075  0.002  0.518
    2  0.042  0.118  0.002  0.162
tot    0.483  0.193  0.004  0.680
 
band     3 # energy    1.72472537 # occ.  2.00000000
 
ion      s      p      d    tot
    1  0.057  0.230  0.023  0.309
    2  0.021  0.237  0.003  0.261
tot    0.078  0.466  0.026  0.570
 
band     4 # energy    2.31288419 # occ.  2.00000000
 
ion      s      p      d    tot
    1  0.000  0.264  0.029  0.293
    2  0.000  0.302  0.002  0.305
tot    0.000  0.567  0.031  0.598
 
band     5 # energy    4.75426223 # occ.  0.00000000
 
ion      s      p      d    tot
    1  0.199  0.132  0.029  0.360
    2  0.081  0.145  0.013  0.239
tot    0.281  0.278  0.041  0.599
 
band     6 # energy    6.98482637 # occ.  0.00000000
 
ion      s      p      d    tot
    1  0.012  0.251  0.074  0.337
    2  0.009  0.066  0.043  0.118
tot    0.021  0.317  0.116  0.455
 
band     7 # energy    7.70855487 # occ.  0.00000000
 
ion      s      p      d    tot
    1  0.000  0.293  0.090  0.384
    2  0.000  0.082  0.054  0.135
tot    0.000  0.375  0.144  0.519
 
band     8 # energy    9.44236379 # occ.  0.00000000
 
ion      s      p      d    tot
    1  0.011  0.179  0.075  0.265
    2  0.010  0.157  0.027  0.194
tot    0.022  0.336  0.101  0.459
 

 k-point    10 :   -0.37500000 0.12500000-0.00000000     weight = 0.04687500

band     1 # energy   -5.73105761 # occ.  2.00000000
 
ion      s      p      d    tot
    1  0.123  0.049  0.009  0.181
    2  0.492  0.002  0.000  0.495
tot    0.615  0.052  0.009  0.676
 
band     2 # energy   -1.59629932 # occ.  2.00000000
 
ion      s      p      d    tot
    1  0.428  0.078  0.004  0.509
    2  0.055  0.118  0.002  0.175
tot    0.483  0.196  0.006  0.684
 
band     3 # energy    1.63887334 # occ.  2.00000000
 
ion      s      p      d    tot
    1  0.050  0.235  0.022  0.306
    2  0.018  0.236  0.003  0.257
tot    0.067  0.471  0.025  0.563
 
band     4 # energy    2.50733779 # occ.  2.00000000
 
ion      s      p      d    tot
    1  0.000  0.255  0.034  0.289
    2  0.000  0.314  0.003  0.317
tot    0.000  0.569  0.036  0.606
 
band     5 # energy    4.75122174 # occ.  0.00000000
 
ion      s      p      d    tot
    1  0.206  0.138  0.025  0.369
    2  0.086  0.139  0.012  0.237
tot    0.291  0.278  0.037  0.606
 
band     6 # energy    7.16503266 # occ.  0.00000000
 
ion      s      p      d    tot
    1  0.009  0.239  0.079  0.328
    2  0.008  0.071  0.045  0.123
tot    0.017  0.310  0.124  0.451
 
band     7 # energy    7.49672359 # occ.  0.00000000
 
ion      s      p      d    tot
    1  0.000  0.321  0.077  0.398
    2  0.000  0.075  0.051  0.126
tot    0.000  0.396  0.128  0.524
 
band     8 # energy    9.40499647 # occ.  0.00000000
 
ion      s      p      d    tot
    1  0.022  0.170  0.062  0.254
    2  0.019  0.200  0.020  0.240
tot    0.041  0.370  0.083  0.494
 

 k-point    11 :   -0.25000000 0.12500000-0.00000000     weight = 0.04687500

band     1 # energy   -6.13095024 # occ.  2.00000000
 
ion      s      p      d    tot
    1  0.181  0.031  0.005  0.216
    2  0.448  0.003  0.000  0.451
tot    0.628  0.034  0.005  0.667
 
band     2 # energy   -0.63515115 # occ.  2.00000000
 
ion      s      p      d    tot
    1  0.376  0.083  0.014  0.473
    2  0.108  0.123  0.003  0.233
tot    0.484  0.206  0.017  0.706
 
band     3 # energy    1.84524100 # occ.  2.00000000
 
ion      s      p      d    tot
    1  0.032  0.240  0.025  0.297
    2  0.009  0.248  0.004  0.261
tot    0.041  0.488  0.029  0.558
 
band     4 # energy    2.85472483 # occ.  2.00000000
 
ion      s      p      d    tot
    1  0.000  0.228  0.046  0.275
    2  0.000  0.336  0.003  0.340
tot    0.000  0.565  0.050  0.614
 
band     5 # energy    4.84926181 # occ.  0.00000000
 
ion      s      p      d    tot
    1  0.213  0.143  0.020  0.376
    2  0.090  0.152  0.010  0.252
tot    0.303  0.295  0.030  0.628
 
band     6 # energy    7.19179707 # occ.  0.00000000
 
ion      s      p      d    tot
    1  0.000  0.399  0.049  0.448
    2  0.000  0.070  0.047  0.117
tot    0.000  0.469  0.096  0.565
 
band     7 # energy    7.22381278 # occ.  0.00000000
 
ion      s      p      d    tot
    1  0.019  0.287  0.066  0.371
    2  0.020  0.087  0.042  0.149
tot    0.039  0.373  0.107  0.520
 
band     8 # energy    8.18359075 # occ.  0.00000000
 
ion      s      p      d    tot
    1  0.028  0.175  0.064  0.266
    2  0.026  0.160  0.031  0.216
tot    0.054  0.335  0.094  0.483
 

 k-point    12 :   -0.12500000 0.12500000-0.00000000     weight = 0.02343750

band     1 # energy   -6.50771042 # occ.  2.00000000
 
ion      s      p      d    tot
    1  0.223  0.014  0.002  0.238
    2  0.420  0.002  0.000  0.422
tot    0.642  0.016  0.002  0.660
 
band     2 # energy    0.59565086 # occ.  2.00000000
 
ion      s      p      d    tot
    1  0.339  0.081  0.024  0.444
    2  0.149  0.131  0.003  0.282
tot    0.488  0.211  0.027  0.726
 
band     3 # energy    2.42330463 # occ.  2.00000000
 
ion      s      p      d    tot
    1  0.011  0.231  0.039  0.281
    2  0.001  0.284  0.004  0.289
tot    0.013  0.515  0.043  0.571
 
band     4 # energy    3.19398857 # occ.  2.00000000
 
ion      s      p      d    tot
    1  0.000  0.188  0.063  0.251
    2  0.000  0.364  0.003  0.367
tot    0.000  0.552  0.066  0.618
 
band     5 # energy    4.72474745 # occ.  0.00000000
 
ion      s      p      d    tot
    1  0.223  0.127  0.020  0.369
    2  0.105  0.185  0.005  0.295
tot    0.328  0.312  0.025  0.664
 
band     6 # energy    6.66701122 # occ.  0.00000000
 
ion      s      p      d    tot
    1  0.027  0.310  0.047  0.384
    2  0.031  0.082  0.036  0.149
tot    0.058  0.391  0.083  0.533
 
band     7 # energy    6.76274940 # occ.  0.00000000
 
ion      s      p      d    tot
    1  0.000  0.462  0.028  0.490
    2  0.000  0.052  0.046  0.098
tot    0.000  0.513  0.074  0.587
 
band     8 # energy    7.62424742 # occ.  0.00000000
 
ion      s      p      d    tot
    1  0.009  0.331  0.051  0.391
    2  0.010  0.134  0.042  0.187
tot    0.019  0.465  0.094  0.578
 

 k-point    13 :    0.25000000 0.25000000 0.00000000     weight = 0.01171875

band     1 # energy   -6.20583228 # occ.  2.00000000
 
ion      s      p      d    tot
    1  0.189  0.029  0.004  0.221
    2  0.440  0.003  0.000  0.443
tot    0.628  0.032  0.004  0.664
 
band     2 # energy   -0.19915462 # occ.  2.00000000
 
ion      s      p      d    tot
    1  0.412  0.052  0.022  0.486
    2  0.140  0.116  0.003  0.260
tot    0.552  0.168  0.025  0.745
 
band     3 # energy    2.15877352 # occ.  2.00000000
 
ion      s      p      d    tot
    1  0.000  0.262  0.028  0.290
    2  0.000  0.287  0.003  0.290
tot    0.000  0.549  0.031  0.580
 
band     4 # energy    2.15877366 # occ.  2.00000000
 
ion      s      p      d    tot
    1  0.000  0.262  0.028  0.290
    2  0.000  0.287  0.003  0.290
tot    0.000  0.549  0.031  0.580
 
band     5 # energy    5.03741138 # occ.  0.00000000
 
ion      s      p      d    tot
    1  0.161  0.101  0.050  0.312
    2  0.001  0.122  0.025  0.148
tot    0.162  0.224  0.075  0.460
 
band     6 # energy    5.81777814 # occ.  0.00000000
 
ion      s      p      d    tot
    1  0.065  0.268  0.022  0.355
    2  0.099  0.106  0.014  0.219
tot    0.164  0.374  0.036  0.574
 
band     7 # energy    8.54491750 # occ.  0.00000000
 
ion      s      p      d    tot
    1  0.000  0.370  0.068  0.438
    2  0.000  0.140  0.053  0.193
tot    0.000  0.510  0.121  0.630
 
band     8 # energy    8.54491756 # occ.  0.00000000
 
ion      s      p      d    tot
    1  0.000  0.370  0.068  0.438
    2  0.000  0.140  0.053  0.193
tot    0.000  0.510  0.121  0.630
 

 k-point    14 :    0.37500000 0.25000000 0.00000000     weight = 0.04687500

band     1 # energy   -5.85103644 # occ.  2.00000000
 
ion      s      p      d    tot
    1  0.141  0.046  0.007  0.194
    2  0.472  0.004  0.000  0.476
tot    0.613  0.050  0.007  0.670
 
band     2 # energy   -1.04962209 # occ.  2.00000000
 
ion      s      p      d    tot
    1  0.462  0.046  0.014  0.521
    2  0.101  0.112  0.003  0.215
tot    0.562  0.158  0.017  0.736
 
band     3 # energy    1.62963945 # occ.  2.00000000
 
ion      s      p      d    tot
    1  0.015  0.262  0.019  0.296
    2  0.004  0.252  0.003  0.258
tot    0.019  0.513  0.022  0.554
 
band     4 # energy    1.90470766 # occ.  2.00000000
 
ion      s      p      d    tot
    1  0.000  0.276  0.020  0.297
    2  0.000  0.278  0.002  0.280
tot    0.000  0.554  0.022  0.577
 
band     5 # energy    5.15237021 # occ.  0.00000000
 
ion      s      p      d    tot
    1  0.141  0.107  0.054  0.302
    2  0.015  0.123  0.024  0.163
tot    0.156  0.230  0.078  0.464
 
band     6 # energy    5.96786900 # occ.  0.00000000
 
ion      s      p      d    tot
    1  0.069  0.225  0.038  0.332
    2  0.068  0.099  0.019  0.186
tot    0.137  0.324  0.057  0.518
 
band     7 # energy    8.47965769 # occ.  0.00000000
 
ion      s      p      d    tot
    1  0.012  0.221  0.095  0.328
    2  0.020  0.098  0.049  0.166
tot    0.032  0.318  0.143  0.494
 
band     8 # energy    9.01892445 # occ.  0.00000000
 
ion      s      p      d    tot
    1  0.000  0.326  0.085  0.411
    2  0.000  0.138  0.056  0.194
tot    0.000  0.464  0.141  0.605
 

 k-point    15 :    0.50000000 0.25000000 0.00000000     weight = 0.04687500

band     1 # energy   -5.49560615 # occ.  2.00000000
 
ion      s      p      d    tot
    1  0.077  0.065  0.011  0.154
    2  0.521  0.002  0.000  0.524
tot    0.599  0.067  0.012  0.678
 
band     2 # energy   -1.73560853 # occ.  2.00000000
 
ion      s      p      d    tot
    1  0.526  0.038  0.005  0.568
    2  0.045  0.110  0.003  0.158
tot    0.571  0.147  0.007  0.726
 
band     3 # energy    1.04120963 # occ.  2.00000000
 
ion      s      p      d    tot
    1  0.025  0.253  0.014  0.292
    2  0.007  0.223  0.002  0.233
tot    0.033  0.476  0.016  0.525
 
band     4 # energy    1.88338459 # occ.  2.00000000
 
ion      s      p      d    tot
    1  0.000  0.281  0.019  0.299
    2  0.000  0.280  0.002  0.281
tot    0.000  0.560  0.020  0.581
 
band     5 # energy    5.18499978 # occ.  0.00000000
 
ion      s      p      d    tot
    1  0.133  0.130  0.050  0.313
    2  0.041  0.107  0.022  0.170
tot    0.174  0.237  0.072  0.483
 
band     6 # energy    6.96211835 # occ.  0.00000000
 
ion      s      p      d    tot
    1  0.084  0.169  0.043  0.296
    2  0.033  0.170  0.024  0.226
tot    0.117  0.338  0.066  0.522
 
band     7 # energy    8.39579196 # occ.  0.00000000
 
ion      s      p      d    tot
    1  0.003  0.223  0.105  0.331
    2  0.028  0.058  0.046  0.132
tot    0.031  0.282  0.150  0.463
 
band     8 # energy    8.88020853 # occ.  0.00000000
 
ion      s      p      d    tot
    1  0.000  0.286  0.096  0.382
    2  0.000  0.118  0.058  0.176
tot    0.000  0.404  0.154  0.557
 

 k-point    16 :   -0.37500000 0.25000000-0.00000000     weight = 0.04687500

band     1 # energy   -5.44626655 # occ.  2.00000000
 
ion      s      p      d    tot
    1  0.068  0.067  0.012  0.147
    2  0.531  0.002  0.000  0.532
tot    0.598  0.069  0.013  0.679
 
band     2 # energy   -1.81532268 # occ.  2.00000000
 
ion      s      p      d    tot
    1  0.537  0.038  0.002  0.578
    2  0.035  0.109  0.003  0.147
tot    0.572  0.148  0.006  0.725
 
band     3 # energy    0.75658383 # occ.  2.00000000
 
ion      s      p      d    tot
    1  0.021  0.252  0.012  0.286
    2  0.006  0.215  0.002  0.223
tot    0.028  0.467  0.014  0.508
 
band     4 # energy    2.09876100 # occ.  2.00000000
 
ion      s      p      d    tot
    1  0.000  0.274  0.023  0.297
    2  0.000  0.290  0.002  0.293
tot    0.000  0.564  0.025  0.590
 
band     5 # energy    5.25924464 # occ.  0.00000000
 
ion      s      p      d    tot
    1  0.149  0.143  0.043  0.334
    2  0.052  0.110  0.020  0.182
tot    0.200  0.253  0.063  0.516
 
band     6 # energy    7.58878628 # occ.  0.00000000
 
ion      s      p      d    tot
    1  0.068  0.132  0.047  0.247
    2  0.017  0.180  0.032  0.229
tot    0.085  0.313  0.079  0.476
 
band     7 # energy    8.47560525 # occ.  0.00000000
 
ion      s      p      d    tot
    1  0.000  0.308  0.080  0.388
    2  0.000  0.110  0.053  0.163
tot    0.000  0.418  0.133  0.551
 
band     8 # energy    9.08778045 # occ.  0.00000000
 
ion      s      p      d    tot
    1  0.021  0.252  0.085  0.358
    2  0.042  0.135  0.022  0.199
tot    0.064  0.387  0.107  0.557
 

 k-point    17 :   -0.25000000 0.25000000-0.00000000     weight = 0.02343750

band     1 # energy   -5.75707395 # occ.  2.00000000
 
ion      s      p      d    tot
    1  0.127  0.049  0.008  0.185
    2  0.485  0.003  0.000  0.489
tot    0.613  0.052  0.009  0.674
 
band     2 # energy   -1.28937933 # occ.  2.00000000
 
ion      s      p      d    tot
    1  0.468  0.055  0.009  0.532
    2  0.081  0.112  0.003  0.195
tot    0.549  0.167  0.012  0.727
 
band     3 # energy    0.97525605 # occ.  2.00000000
 
ion      s      p      d    tot
    1  0.018  0.254  0.014  0.286
    2  0.003  0.221  0.002  0.226
tot    0.021  0.475  0.016  0.512
 
band     4 # energy    2.48438449 # occ.  2.00000000
 
ion      s      p      d    tot
    1  0.000  0.255  0.034  0.289
    2  0.000  0.311  0.003  0.314
tot    0.000  0.567  0.037  0.603
 
band     5 # energy    5.32974237 # occ.  0.00000000
 
ion      s      p      d    tot
    1  0.181  0.154  0.028  0.363
    2  0.066  0.137  0.015  0.219
tot    0.247  0.291  0.044  0.582
 
band     6 # energy    7.76392085 # occ.  0.00000000
 
ion      s      p      d    tot
    1  0.066  0.138  0.035  0.238
    2  0.002  0.160  0.046  0.209
tot    0.068  0.298  0.081  0.447
 
band     7 # energy    7.85147928 # occ.  0.00000000
 
ion      s      p      d    tot
    1  0.000  0.365  0.058  0.423
    2  0.000  0.097  0.047  0.145
tot    0.000  0.463  0.105  0.568
 
band     8 # energy    8.03632499 # occ.  0.00000000
 
ion      s      p      d    tot
    1  0.001  0.226  0.107  0.334
    2  0.056  0.108  0.019  0.183
tot    0.057  0.334  0.126  0.517
 

 k-point    18 :    0.37500000 0.37500000 0.00000000     weight = 0.01171875

band     1 # energy   -5.57958843 # occ.  2.00000000
 
ion      s      p      d    tot
    1  0.092  0.063  0.010  0.165
    2  0.505  0.003  0.000  0.508
tot    0.597  0.067  0.010  0.674
 
band     2 # energy   -1.53451647 # occ.  2.00000000
 
ion      s      p      d    tot
    1  0.523  0.025  0.010  0.558
    2  0.070  0.108  0.003  0.181
tot    0.593  0.133  0.013  0.739
 
band     3 # energy    1.60497869 # occ.  2.00000000
 
ion      s      p      d    tot
    1  0.000  0.288  0.013  0.301
    2  0.000  0.267  0.001  0.269
tot    0.000  0.556  0.014  0.570
 
band     4 # energy    1.60497883 # occ.  2.00000000
 
ion      s      p      d    tot
    1  0.000  0.288  0.013  0.301
    2  0.000  0.267  0.001  0.269
tot    0.000  0.556  0.014  0.570
 
band     5 # energy    4.74504811 # occ.  0.00000000
 
ion      s      p      d    tot
    1  0.132  0.109  0.056  0.296
    2  0.014  0.080  0.027  0.121
tot    0.146  0.189  0.083  0.417
 
band     6 # energy    5.35246743 # occ.  0.00000000
 
ion      s      p      d    tot
    1  0.067  0.165  0.058  0.290
    2  0.055  0.068  0.022  0.145
tot    0.122  0.233  0.080  0.435
 
band     7 # energy   10.11541877 # occ.  0.00000000
 
ion      s      p      d    tot
    1  0.000  0.344  0.079  0.423
    2  0.000  0.174  0.053  0.227
tot    0.000  0.518  0.132  0.650
 
band     8 # energy   10.11541885 # occ.  0.00000000
 
ion      s      p      d    tot
    1  0.000  0.344  0.079  0.423
    2  0.000  0.174  0.053  0.227
tot    0.000  0.518  0.132  0.650
 

 k-point    19 :    0.50000000 0.37500000 0.00000000     weight = 0.04687500

band     1 # energy   -5.30241769 # occ.  2.00000000
 
ion      s      p      d    tot
    1  0.029  0.082  0.014  0.124
    2  0.552  0.001  0.000  0.554
tot    0.582  0.083  0.014  0.678
 
band     2 # energy   -1.97525564 # occ.  2.00000000
 
ion      s      p      d    tot
    1  0.595  0.009  0.004  0.608
    2  0.022  0.107  0.003  0.132
tot    0.616  0.116  0.007  0.740
 
band     3 # energy    1.13846104 # occ.  2.00000000
 
ion      s      p      d    tot
    1  0.004  0.279  0.010  0.293
    2  0.001  0.240  0.001  0.242
tot    0.004  0.520  0.011  0.535
 
band     4 # energy    1.53744809 # occ.  2.00000000
 
ion      s      p      d    tot
    1  0.000  0.292  0.011  0.303
    2  0.000  0.266  0.001  0.267
tot    0.000  0.558  0.012  0.570
 
band     5 # energy    4.93836814 # occ.  0.00000000
 
ion      s      p      d    tot
    1  0.117  0.111  0.060  0.287