<?xml version="1.0" encoding="ISO-8859-1"?>
<modeling>
 <generator>
  <i name="program" type="string">vasp </i>
  <i name="version" type="string">5.4.4.18Apr17-6-g9f103f2a35  </i>
  <i name="subversion" type="string">(build Apr 10 2018 17:34:00) complex            parallel </i>
  <i name="platform" type="string">LinuxIFC </i>
  <i name="date" type="string">2018 10 04 </i>
  <i name="time" type="string">08:27:08 </i>
 </generator>
 <incar>
  <i type="string" name="SYSTEM"> InSb</i>
  <i type="string" name="PREC">accurate  ! calcululation level (change</i>
  <i type="string" name="ALGO"> NORMAL    ! A Davidson blocked iteratio</i>
  <i type="logical" name="ADDGRID"> T  </i>
  <i type="int" name="ISPIN">     1</i>
  <i name="AMIX">      0.20000000</i>
  <i name="BMIX">      0.00100000</i>
  <i type="int" name="NELM">   100</i>
  <i type="int" name="NELMDL">    -8</i>
  <i type="int" name="NELMIN">     6</i>
  <i type="int" name="IBRION">     2</i>
  <i name="EDIFF">      0.00000010</i>
  <i name="EDIFFG">     -0.00100000</i>
  <i type="int" name="NSW">   100</i>
  <i type="int" name="ISIF">     3</i>
  <i name="ENCUT">    344.00000000</i>
  <i name="POTIM">      0.50000000</i>
  <i type="int" name="NEDOS">    11</i>
  <i type="logical" name="LREAL"> F  </i>
  <i type="logical" name="LPLANE"> T  </i>
  <i type="int" name="ISMEAR">     0</i>
  <i name="SIGMA">      0.01000000</i>
  <i type="int" name="NWRITE">     1</i>
  <i type="int" name="LMAXMIX">     6</i>
  <i type="logical" name="LWAVE"> F  </i>
  <i type="logical" name="LCHARG"> F  </i>
  <i type="int" name="LORBIT">    10</i>
  <i type="logical" name="LASPH"> T  </i>
  <v type="int" name="KPOINT_BSE">    -1     0     0     0</v>
  <i type="int" name="NELM">   100</i>
  <i type="logical" name="LASPH"> T  </i>
 </incar>
 <structure name="primitive_cell" >
  <crystal>
   <varray name="basis" >
    <v>       0.00000000       3.32411182       3.32411182 </v>
    <v>       3.32411182       0.00000000       3.32411182 </v>
    <v>       3.32411182       3.32411182       0.00000000 </v>
   </varray>
   <i name="volume">     73.46100600 </i>
   <varray name="rec_basis" >
    <v>      -0.15041612       0.15041612       0.15041612 </v>
    <v>       0.15041612      -0.15041612       0.15041612 </v>
    <v>       0.15041612       0.15041612      -0.15041612 </v>
   </varray>
  </crystal>
  <varray name="positions" >
   <v>       0.00000000       0.00000000       0.00000000 </v>
   <v>       0.25000000       0.25000000       0.25000000 </v>
  </varray>
 </structure>
 <varray name="primitive_index" >
  <v type="int" >        1 </v>
  <v type="int" >        2 </v>
 </varray>
 <kpoints>
  <generation param="Auto">
   <i name="subdivisionlength">     30.00000000 </i>
   <v type="int" name="divisions">       8        8        8 </v>
   <v name="usershift">      0.00000000       0.00000000       0.00000000 </v>
   <v name="genvec1">      0.12500000      -0.00000000       0.00000000 </v>
   <v name="genvec2">     -0.00000000       0.12500000      -0.00000000 </v>
   <v name="genvec3">      0.00000000       0.00000000       0.12500000 </v>
   <v name="shift">      0.00000000       0.00000000       0.00000000 </v>
  </generation>
  <varray name="kpointlist" >
   <v>       0.00000000       0.00000000       0.00000000 </v>
   <v>       0.12500000      -0.00000000       0.00000000 </v>
   <v>       0.25000000      -0.00000000       0.00000000 </v>
   <v>       0.37500000      -0.00000000       0.00000000 </v>
   <v>       0.50000000      -0.00000000       0.00000000 </v>
   <v>       0.12500000       0.12500000       0.00000000 </v>
   <v>       0.25000000       0.12500000       0.00000000 </v>
   <v>       0.37500000       0.12500000       0.00000000 </v>
   <v>       0.50000000       0.12500000       0.00000000 </v>
   <v>      -0.37500000       0.12500000      -0.00000000 </v>
   <v>      -0.25000000       0.12500000      -0.00000000 </v>
   <v>      -0.12500000       0.12500000      -0.00000000 </v>
   <v>       0.25000000       0.25000000       0.00000000 </v>
   <v>       0.37500000       0.25000000       0.00000000 </v>
   <v>       0.50000000       0.25000000       0.00000000 </v>
   <v>      -0.37500000       0.25000000      -0.00000000 </v>
   <v>      -0.25000000       0.25000000      -0.00000000 </v>
   <v>       0.37500000       0.37500000       0.00000000 </v>
   <v>       0.50000000       0.37500000       0.00000000 </v>
   <v>      -0.37500000       0.37500000      -0.00000000 </v>
   <v>       0.50000000       0.50000000       0.00000000 </v>
   <v>       0.37500000       0.25000000       0.12500000 </v>
   <v>       0.50000000       0.25000000       0.12500000 </v>
   <v>      -0.37500000       0.25000000       0.12500000 </v>
   <v>       0.50000000       0.37500000       0.12500000 </v>
   <v>      -0.37500000       0.37500000       0.12500000 </v>
   <v>      -0.25000000       0.37500000       0.12500000 </v>
   <v>      -0.37500000       0.50000000       0.12500000 </v>
   <v>      -0.25000000       0.50000000       0.25000000 </v>
  </varray>
  <varray name="weights" >
   <v>       0.00195312 </v>
   <v>       0.01562500 </v>
   <v>       0.01562500 </v>
   <v>       0.01562500 </v>
   <v>       0.00781250 </v>
   <v>       0.01171875 </v>
   <v>       0.04687500 </v>
   <v>       0.04687500 </v>
   <v>       0.04687500 </v>
   <v>       0.04687500 </v>
   <v>       0.04687500 </v>
   <v>       0.02343750 </v>
   <v>       0.01171875 </v>
   <v>       0.04687500 </v>
   <v>       0.04687500 </v>
   <v>       0.04687500 </v>
   <v>       0.02343750 </v>
   <v>       0.01171875 </v>
   <v>       0.04687500 </v>
   <v>       0.02343750 </v>
   <v>       0.00585938 </v>
   <v>       0.04687500 </v>
   <v>       0.09375000 </v>
   <v>       0.04687500 </v>
   <v>       0.04687500 </v>
   <v>       0.09375000 </v>
   <v>       0.04687500 </v>
   <v>       0.02343750 </v>
   <v>       0.01171875 </v>
  </varray>
 </kpoints>
 <parameters>
  <separator name="general" >
   <i type="string" name="SYSTEM">InSb</i>
   <i type="logical" name="LCOMPAT"> F  </i>
  </separator>
  <separator name="electronic" >
   <i type="string" name="PREC">accura</i>
   <i name="ENMAX">    344.00000000</i>
   <i name="ENAUG">    380.51300000</i>
   <i name="EDIFF">      0.00000010</i>
   <i type="int" name="IALGO">    38</i>
   <i type="int" name="IWAVPR">    11</i>
   <i type="int" name="NBANDS">     8</i>
   <i name="NELECT">      8.00000000</i>
   <i type="int" name="TURBO">     0</i>
   <i type="int" name="IRESTART">     0</i>
   <i type="int" name="NREBOOT">     0</i>
   <i type="int" name="NMIN">     0</i>
   <i name="EREF">      0.00000000</i>
   <separator name="electronic smearing" >
    <i type="int" name="ISMEAR">     0</i>
    <i name="SIGMA">      0.01000000</i>
    <i name="KSPACING">      0.50000000</i>
    <i type="logical" name="KGAMMA"> T  </i>
   </separator>
   <separator name="electronic projectors" >
    <i type="logical" name="LREAL"> F  </i>
    <v name="ROPT">      0.00000000      0.00000000</v>
    <i type="int" name="LMAXPAW">  -100</i>
    <i type="int" name="LMAXMIX">     6</i>
    <i type="logical" name="NLSPLINE"> F  </i>
   </separator>
   <separator name="electronic startup" >
    <i type="int" name="ISTART">     0</i>
    <i type="int" name="ICHARG">     2</i>
    <i type="int" name="INIWAV">     1</i>
   </separator>
   <separator name="electronic spin" >
    <i type="int" name="ISPIN">     1</i>
    <i type="logical" name="LNONCOLLINEAR"> F  </i>
    <v name="MAGMOM">      1.00000000      1.00000000</v>
    <i name="NUPDOWN">     -1.00000000</i>
    <i type="logical" name="LSORBIT"> F  </i>
    <v name="SAXIS">      0.00000000      0.00000000      1.00000000</v>
    <i type="logical" name="LSPIRAL"> F  </i>
    <v name="QSPIRAL">      0.00000000      0.00000000      0.00000000</v>
    <i type="logical" name="LZEROZ"> F  </i>
   </separator>
   <separator name="electronic exchange-correlation" >
    <i type="logical" name="LASPH"> T  </i>
    <i type="logical" name="LMETAGGA"> F  </i>
   </separator>
   <separator name="electronic convergence" >
    <i type="int" name="NELM">   100</i>
    <i type="int" name="NELMDL">    -8</i>
    <i type="int" name="NELMIN">     6</i>
    <i name="ENINI">    344.00000000</i>
    <separator name="electronic convergence detail" >
     <i type="logical" name="LDIAG"> T  </i>
     <i type="logical" name="LSUBROT"> F  </i>
     <i name="WEIMIN">      0.00100000</i>
     <i name="EBREAK">      0.00000000</i>
     <i name="DEPER">      0.30000000</i>
     <i type="int" name="NRMM">     4</i>
     <i name="TIME">      0.40000000</i>
    </separator>
   </separator>
   <separator name="electronic mixer" >
    <i name="AMIX">      0.20000000</i>
    <i name="BMIX">      0.00100000</i>
    <i name="AMIN">      0.10000000</i>
    <i name="AMIX_MAG">      0.80000000</i>
    <i name="BMIX_MAG">      0.00100000</i>
    <separator name="electronic mixer details" >
     <i type="int" name="IMIX">     4</i>
     <i type="logical" name="MIXFIRST"> F  </i>
     <i type="int" name="MAXMIX">   -45</i>
     <i name="WC">    100.00000000</i>
     <i type="int" name="INIMIX">     1</i>
     <i type="int" name="MIXPRE">     1</i>
     <i type="int" name="MREMOVE">     5</i>
    </separator>
   </separator>
   <separator name="electronic dipolcorrection" >
    <i type="logical" name="LDIPOL"> F  </i>
    <i type="logical" name="LMONO"> F  </i>
    <i type="int" name="IDIPOL">     0</i>
    <i name="EPSILON">      1.00000000</i>
    <v name="DIPOL">   -100.00000000   -100.00000000   -100.00000000</v>
    <i name="EFIELD">      0.00000000</i>
   </separator>
  </separator>
  <separator name="grids" >
   <i type="int" name="NGX">    28</i>
   <i type="int" name="NGY">    28</i>
   <i type="int" name="NGZ">    28</i>
   <i type="int" name="NGXF">    56</i>
   <i type="int" name="NGYF">    56</i>
   <i type="int" name="NGZF">    56</i>
   <i type="logical" name="ADDGRID"> T  </i>
  </separator>
  <separator name="ionic" >
   <i type="int" name="NSW">   100</i>
   <i type="int" name="IBRION">     2</i>
   <i type="int" name="MDALGO">     0</i>
   <i type="int" name="ISIF">     3</i>
   <i name="PSTRESS">      0.00000000</i>
   <i name="EDIFFG">     -0.00100000</i>
   <i type="int" name="NFREE">     1</i>
   <i name="POTIM">      0.50000000</i>
   <i name="SMASS">     -3.00000000</i>
   <i name="SCALEE">      1.00000000</i>
  </separator>
  <separator name="ionic md" >
   <i name="TEBEG">      0.00010000</i>
   <i name="TEEND">      0.00010000</i>
   <i type="int" name="NBLOCK">     1</i>
   <i type="int" name="KBLOCK">   100</i>
   <i type="int" name="NPACO">   256</i>
   <i name="APACO">     16.00000000</i>
  </separator>
  <separator name="symmetry" >
   <i type="int" name="ISYM">     2</i>
   <i name="SYMPREC">      0.00001000</i>
  </separator>
  <separator name="dos" >
   <i type="int" name="LORBIT">    10</i>
   <v name="RWIGS">     -1.00000000     -1.00000000</v>
   <i type="int" name="NEDOS">    11</i>
   <i name="EMIN">     10.00000000</i>
   <i name="EMAX">    -10.00000000</i>
   <i name="EFERMI">      0.00000000</i>
  </separator>
  <separator name="writing" >
   <i type="int" name="NWRITE">     1</i>
   <i type="logical" name="LWAVE"> F  </i>
   <i type="logical" name="LDOWNSAMPLE"> F  </i>
   <i type="logical" name="LCHARG"> F  </i>
   <i type="logical" name="LPARD"> F  </i>
   <i type="logical" name="LVTOT"> F  </i>
   <i type="logical" name="LVHAR"> F  </i>
   <i type="logical" name="LELF"> F  </i>
   <i type="logical" name="LOPTICS"> F  </i>
   <v name="STM">      0.00000000      0.00000000      0.00000000      0.00000000      0.00000000      0.00000000      0.00000000</v>
  </separator>
  <separator name="performance" >
   <i type="int" name="NPAR">     2</i>
   <i type="int" name="NSIM">     4</i>
   <i type="int" name="NBLK">    -1</i>
   <i type="logical" name="LPLANE"> T  </i>
   <i type="logical" name="LSCALAPACK"> T  </i>
   <i type="logical" name="LSCAAWARE"> F  </i>
   <i type="logical" name="LSCALU"> F  </i>
   <i type="logical" name="LASYNC"> F  </i>
   <i type="logical" name="LORBITALREAL"> F  </i>
  </separator>
  <separator name="miscellaneous" >
   <i type="int" name="IDIOT">     3</i>
   <i type="int" name="ISPECIAL">     0</i>
   <i type="logical" name="LMUSIC"> F  </i>
   <v name="POMASS">    114.82000000    121.75000000</v>
   <v name="DARWINR">      0.00000000      0.00000000</v>
   <v name="DARWINV">      1.00000000      1.00000000</v>
   <i type="logical" name="LCORR"> T  </i>
  </separator>
  <i type="logical" name="GGA_COMPAT"> T  </i>
  <i type="logical" name="LBERRY"> F  </i>
  <i type="int" name="ICORELEVEL">     0</i>
  <i type="logical" name="LDAU"> F  </i>
  <i type="int" name="I_CONSTRAINED_M">     0</i>
  <separator name="electronic exchange-correlation" >
   <i type="string" name="GGA">--</i>
   <i type="int" name="VOSKOWN">     0</i>
   <i type="logical" name="LHFCALC"> F  </i>
   <i type="string" name="PRECFOCK"></i>
   <i type="logical" name="LSYMGRAD"> F  </i>
   <i type="logical" name="LHFONE"> F  </i>
   <i type="logical" name="LRHFCALC"> F  </i>
   <i type="logical" name="LTHOMAS"> F  </i>
   <i type="logical" name="LMODELHF"> F  </i>
   <i name="ENCUT4O">     -1.00000000</i>
   <i type="int" name="EXXOEP">     0</i>
   <i type="int" name="FOURORBIT">     0</i>
   <i name="AEXX">      0.00000000</i>
   <i name="HFALPHA">      0.00000000</i>
   <i name="MCALPHA">      0.00000000</i>
   <i name="ALDAX">      1.00000000</i>
   <i name="AGGAX">      1.00000000</i>
   <i name="ALDAC">      1.00000000</i>
   <i name="AGGAC">      1.00000000</i>
   <i type="int" name="NKREDX">     1</i>
   <i type="int" name="NKREDY">     1</i>
   <i type="int" name="NKREDZ">     1</i>
   <i type="logical" name="SHIFTRED"> F  </i>
   <i type="logical" name="ODDONLY"> F  </i>
   <i type="logical" name="EVENONLY"> F  </i>
   <i type="int" name="LMAXFOCK">     0</i>
   <i type="int" name="NMAXFOCKAE">     0</i>
   <i type="logical" name="LFOCKAEDFT"> F  </i>
   <i name="HFSCREEN">      0.00000000</i>
   <i name="HFSCREENC">      0.00000000</i>
   <i type="int" name="NBANDSGWLOW">     0</i>
  </separator>
  <separator name="vdW DFT" >
   <i type="logical" name="LUSE_VDW"> F  </i>
   <i name="Zab_VDW">     -0.84910000</i>
   <i name="PARAM1">      0.12340000</i>
   <i name="PARAM2">      1.00000000</i>
   <i name="PARAM3">      0.00000000</i>
  </separator>
  <separator name="model GW" >
   <i type="int" name="MODEL_GW">     0</i>
   <i name="MODEL_EPS0">     22.03830180</i>
   <i name="MODEL_ALPHA">      1.00000000</i>
  </separator>
  <separator name="linear response parameters" >
   <i type="logical" name="LEPSILON"> F  </i>
   <i type="logical" name="LRPA"> F  </i>
   <i type="logical" name="LNABLA"> F  </i>
   <i type="logical" name="LVEL"> F  </i>
   <i type="int" name="KINTER">     0</i>
   <i name="CSHIFT">      0.10000000</i>
   <i name="OMEGAMAX">     -1.00000000</i>
   <i name="DEG_THRESHOLD">      0.00200000</i>
   <i name="RTIME">     -0.10000000</i>
   <i name="WPLASMAI">      0.00000000</i>
   <v name="DFIELD">      0.00000000      0.00000000      0.00000000</v>
   <v name="WPLASMA">      0.00000000      0.00000000      0.00000000      0.00000000      0.00000000      0.00000000      0.00000000      0.00000000      0.00000000</v>
  </separator>
  <separator name="orbital magnetization" >
   <i type="logical" name="NUCIND"> F  </i>
   <v name="MAGPOS">      0.00000000      0.00000000      0.00000000</v>
   <i type="logical" name="LNICSALL"> T  </i>
   <i type="logical" name="ORBITALMAG"> F  </i>
   <i type="logical" name="LMAGBLOCH"> F  </i>
   <i type="logical" name="LCHIMAG"> F  </i>
   <i type="logical" name="LGAUGE"> T  </i>
   <i type="int" name="MAGATOM">     0</i>
   <v name="MAGDIPOL">      0.00000000      0.00000000      0.00000000</v>
   <v name="AVECCONST">      0.00000000      0.00000000      0.00000000</v>
  </separator>
  <separator name="response functions" >
   <i type="logical" name="LADDER"> F  </i>
   <i type="logical" name="LRPAFORCE"> F  </i>
   <i type="logical" name="LFXC"> F  </i>
   <i type="logical" name="LHARTREE"> T  </i>
   <i type="int" name="IBSE">     0</i>
   <v type="int" name="KPOINT">    -1     0     0     0</v>
   <i type="logical" name="LTCTE"> F  </i>
   <i type="logical" name="LTETE"> F  </i>
   <i type="logical" name="LTRIPLET"> F  </i>
   <i type="logical" name="LFXCEPS"> F  </i>
   <i type="logical" name="LFXHEG"> F  </i>
   <i type="int" name="NATURALO">     2</i>
   <i type="logical" name="L2ORDER"> F  </i>
   <i type="logical" name="LMP2LT"> F  </i>
   <i type="logical" name="LUSEW"> F  </i>
   <i name="ENCUTGW">     -2.00000000</i>
   <i name="ENCUTGWSOFT">     -2.00000000</i>
   <i name="ENCUTLF">     -1.00000000</i>
   <i type="int" name="LMAXMP2">    -1</i>
   <i name="SCISSOR">      0.00000000</i>
   <i type="int" name="NOMEGA">     0</i>
   <i type="int" name="NOMEGAR">     0</i>
   <i type="int" name="NBANDSGW">    -1</i>
   <i type="int" name="NBANDSO">    -1</i>
   <i type="int" name="NBANDSV">    -1</i>
   <i type="int" name="NELM">   100</i>
   <i type="int" name="NELMHF">     1</i>
   <i type="int" name="DIM">     3</i>
   <i type="int" name="ANTIRES">     0</i>
   <i name="OMEGAMAX">    -30.00000000</i>
   <i name="OMEGAMIN">    -30.00000000</i>
   <i name="OMEGATL">   -200.00000000</i>
   <i type="int" name="OMEGAGRID">   140</i>
   <i name="CSHIFT">     -0.10000000</i>
   <i type="logical" name="SELFENERGY"> F  </i>
   <i type="logical" name="LSPECTRAL"> F  </i>
   <i type="logical" name="LSPECTRALGW"> F  </i>
   <i type="logical" name="LSINGLES"> F  </i>
   <i type="logical" name="LFERMIGW"> F  </i>
   <i type="logical" name="ODDONLYGW"> F  </i>
   <i type="logical" name="EVENONLYGW"> F  </i>
   <i type="int" name="NKREDLFX">     1</i>
   <i type="int" name="NKREDLFY">     1</i>
   <i type="int" name="NKREDLFZ">     1</i>
   <i type="int" name="MAXMEM">  2800</i>
   <i type="int" name="TELESCOPE">     0</i>
   <i type="int" name="TAUPAR">     1</i>
   <i type="int" name="OMEGAPAR">    -1</i>
   <i name="LAMBDA">      1.00000000</i>
  </separator>
  <separator name="External order field" >
   <i name="OFIELD_KAPPA">      0.00000000</i>
   <v name="OFIELD_K">      0.00000000      0.00000000      0.00000000</v>
   <i name="OFIELD_Q6_NEAR">      0.00000000</i>
   <i name="OFIELD_Q6_FAR">      0.00000000</i>
   <i name="OFIELD_A">      0.00000000</i>
  </separator>
 </parameters>
 <atominfo>
  <atoms>       2 </atoms>
  <types>       2 </types>
  <array name="atoms" >
   <dimension dim="1">ion</dimension>
   <field type="string">element</field>
   <field type="int">atomtype</field>
   <set>
    <rc><c>In</c><c>   1</c></rc>
    <rc><c>Sb</c><c>   2</c></rc>
   </set>
  </array>
  <array name="atomtypes" >
   <dimension dim="1">type</dimension>
   <field type="int">atomspertype</field>
   <field type="string">element</field>
   <field>mass</field>
   <field>valence</field>
   <field type="string">pseudopotential</field>
   <set>
    <rc><c>   1</c><c>In</c><c>    114.82000000</c><c>      3.00000000</c><c>  PAW_PBE In 08Apr2002                  </c></rc>
    <rc><c>   1</c><c>Sb</c><c>    121.75000000</c><c>      5.00000000</c><c>  PAW_PBE Sb 06Sep2000                  </c></rc>
   </set>
  </array>
 </atominfo>
 <structure name="initialpos" >
  <crystal>
   <varray name="basis" >
    <v>       0.00000000       3.32411182       3.32411182 </v>
    <v>       3.32411182       0.00000000       3.32411182 </v>
    <v>       3.32411182       3.32411182       0.00000000 </v>
   </varray>
   <i name="volume">     73.46100600 </i>
   <varray name="rec_basis" >
    <v>      -0.15041612       0.15041612       0.15041612 </v>
    <v>       0.15041612      -0.15041612       0.15041612 </v>
    <v>       0.15041612       0.15041612      -0.15041612 </v>
   </varray>
  </crystal>
  <varray name="positions" >
   <v>       0.00000000       0.00000000       0.00000000 </v>
   <v>       0.25000000       0.25000000       0.25000000 </v>
  </varray>
 </structure>
 <calculation>
  <scstep>
   <time name="dav">    0.04    0.04</time>
   <time name="total">    0.14    0.14</time>
   <energy>
    <i name="alphaZ">     -1.41261028 </i>
    <i name="ewald">   -194.87510325 </i>
    <i name="hartreedc">    -16.37733378 </i>
    <i name="XCdc">   -102.19244635 </i>
    <i name="pawpsdc">    257.90221424 </i>
    <i name="pawaedc">   -144.56680536 </i>
    <i name="eentropy">     -0.00040373 </i>
    <i name="bandstr">     12.55507244 </i>
    <i name="atom">    203.74094076 </i>
    <i name="e_fr_energy">     14.77352469 </i>
    <i name="e_wo_entrp">     14.77392842 </i>
    <i name="e_0_energy">     14.77372656 </i>
   </energy>
  </scstep>
  <scstep>
   <time name="dav">    0.05    0.05</time>
   <time name="total">    0.05    0.05</time>
   <energy>
    <i name="e_fr_energy">     -6.51855945 </i>
    <i name="e_wo_entrp">     -6.51855945 </i>
    <i name="e_0_energy">     -6.51855945 </i>
   </energy>
  </scstep>
  <scstep>
   <time name="dav">    0.05    0.05</time>
   <time name="total">    0.05    0.05</time>
   <energy>
    <i name="e_fr_energy">     -7.03589740 </i>
    <i name="e_wo_entrp">     -7.03586734 </i>
    <i name="e_0_energy">     -7.03588237 </i>
   </energy>
  </scstep>
  <scstep>
   <time name="dav">    0.06    0.06</time>
   <time name="total">    0.06    0.06</time>
   <energy>
    <i name="e_fr_energy">     -7.03934341 </i>
    <i name="e_wo_entrp">     -7.03931328 </i>
    <i name="e_0_energy">     -7.03932835 </i>
   </energy>
  </scstep>
  <scstep>
   <time name="dav">    0.05    0.05</time>
   <time name="total">    0.05    0.05</time>
   <energy>
    <i name="e_fr_energy">     -7.03935843 </i>
    <i name="e_wo_entrp">     -7.03932830 </i>
    <i name="e_0_energy">     -7.03934337 </i>
   </energy>
  </scstep>
  <scstep>
   <time name="dav">    0.05    0.05</time>
   <time name="total">    0.05    0.05</time>
   <energy>
    <i name="e_fr_energy">     -7.03935858 </i>
    <i name="e_wo_entrp">     -7.03932845 </i>
    <i name="e_0_energy">     -7.03934352 </i>
   </energy>
  </scstep>
  <scstep>
   <time name="dav">    0.05    0.05</time>
   <time name="total">    0.05    0.05</time>
   <energy>
    <i name="e_fr_energy">     -7.03935858 </i>
    <i name="e_wo_entrp">     -7.03932846 </i>
    <i name="e_0_energy">     -7.03934352 </i>
   </energy>
  </scstep>
  <scstep>
   <time name="dav">    0.05    0.05</time>
   <time name="total">    0.07    0.07</time>
   <energy>
    <i name="e_fr_energy">     -7.03935858 </i>
    <i name="e_wo_entrp">     -7.03932846 </i>
    <i name="e_0_energy">     -7.03934352 </i>
   </energy>
  </scstep>
  <scstep>
   <time name="dav">    0.04    0.04</time>
   <time name="total">    0.17    0.17</time>
   <energy>
    <i name="e_fr_energy">     -6.97868696 </i>
    <i name="e_wo_entrp">     -6.97865683 </i>
    <i name="e_0_energy">     -6.97867189 </i>
   </energy>
  </scstep>
  <scstep>
   <time name="dav">    0.05    0.05</time>
   <time name="total">    0.17    0.17</time>
   <energy>
    <i name="e_fr_energy">     -6.93742420 </i>
    <i name="e_wo_entrp">     -6.93739407 </i>
    <i name="e_0_energy">     -6.93740914 </i>
   </energy>
  </scstep>
  <scstep>
   <time name="dav">    0.04    0.04</time>
   <time name="total">    0.16    0.16</time>
   <energy>
    <i name="e_fr_energy">     -6.93240734 </i>
    <i name="e_wo_entrp">     -6.93237721 </i>
    <i name="e_0_energy">     -6.93239228 </i>
   </energy>
  </scstep>
  <scstep>
   <time name="dav">    0.05    0.05</time>
   <time name="total">    0.17    0.17</time>
   <energy>
    <i name="e_fr_energy">     -6.93269404 </i>
    <i name="e_wo_entrp">     -6.93266391 </i>
    <i name="e_0_energy">     -6.93267898 </i>
   </energy>
  </scstep>
  <scstep>
   <time name="dav">    0.05    0.05</time>
   <time name="total">    0.17    0.17</time>
   <energy>
    <i name="e_fr_energy">     -6.93268520 </i>
    <i name="e_wo_entrp">     -6.93265507 </i>
    <i name="e_0_energy">     -6.93267014 </i>
   </energy>
  </scstep>
  <scstep>
   <time name="dav">    0.04    0.04</time>
   <time name="total">    0.17    0.17</time>
   <energy>
    <i name="e_fr_energy">     -6.93269486 </i>
    <i name="e_wo_entrp">     -6.93266473 </i>
    <i name="e_0_energy">     -6.93267979 </i>
   </energy>
  </scstep>
  <scstep>
   <time name="dav">    0.04    0.04</time>
   <time name="total">    0.17    0.17</time>
   <energy>
    <i name="e_fr_energy">     -6.93269590 </i>
    <i name="e_wo_entrp">     -6.93266578 </i>
    <i name="e_0_energy">     -6.93268084 </i>
   </energy>
  </scstep>
  <scstep>
   <time name="dav">    0.05    0.05</time>
   <time name="total">    0.17    0.17</time>
   <energy>
    <i name="e_fr_energy">     -6.93269484 </i>
    <i name="e_wo_entrp">     -6.93266471 </i>
    <i name="e_0_energy">     -6.93267977 </i>
   </energy>
  </scstep>
  <scstep>
   <time name="dav">    0.04    0.04</time>
   <time name="total">    0.16    0.16</time>
   <energy>
    <i name="e_fr_energy">     -6.93269496 </i>
    <i name="e_wo_entrp">     -6.93266483 </i>
    <i name="e_0_energy">     -6.93267989 </i>
   </energy>
  </scstep>
  <scstep>
   <time name="dav">    0.03    0.03</time>
   <time name="total">    0.15    0.15</time>
   <energy>
    <i name="e_fr_energy">     -6.93269485 </i>
    <i name="e_wo_entrp">     -6.93266472 </i>
    <i name="e_0_energy">     -6.93267978 </i>
   </energy>
  </scstep>
  <scstep>
   <time name="dav">    0.02    0.02</time>
   <time name="total">    0.13    0.13</time>
   <energy>
    <i name="alphaZ">     -1.41261028 </i>
    <i name="ewald">   -194.87510325 </i>
    <i name="hartreedc">    -18.89306277 </i>
    <i name="XCdc">   -101.55982808 </i>
    <i name="pawpsdc">    558.42962682 </i>
    <i name="pawaedc">   -445.45315884 </i>
    <i name="eentropy">     -0.00003013 </i>
    <i name="bandstr">     -6.90946910 </i>
    <i name="atom">    203.74094076 </i>
    <i name="e_fr_energy">     -6.93269486 </i>
    <i name="e_wo_entrp">     -6.93266473 </i>
    <i name="e_0_energy">     -6.93267980 </i>
   </energy>
  </scstep>
  <structure>
   <crystal>
    <varray name="basis" >
     <v>       0.00000000       3.32411182       3.32411182 </v>
     <v>       3.32411182       0.00000000       3.32411182 </v>
     <v>       3.32411182       3.32411182       0.00000000 </v>
    </varray>
    <i name="volume">     73.46100600 </i>
    <varray name="rec_basis" >
     <v>      -0.15041612       0.15041612       0.15041612 </v>
     <v>       0.15041612      -0.15041612       0.15041612 </v>
     <v>       0.15041612       0.15041612      -0.15041612 </v>
    </varray>
   </crystal>
   <varray name="positions" >
    <v>       0.00000000       0.00000000       0.00000000 </v>
    <v>       0.25000000       0.25000000       0.25000000 </v>
   </varray>
  </structure>
  <varray name="forces" >
   <v>       0.00000000      -0.00000000      -0.00000000 </v>
   <v>      -0.00000000       0.00000000       0.00000000 </v>
  </varray>
  <varray name="stress" >
   <v>      -0.02415177       0.00000000       0.00000000 </v>
   <v>       0.00000000      -0.02415177       0.00000000 </v>
   <v>      -0.00000000      -0.00000000      -0.02415177 </v>
  </varray>
  <energy>
   <i name="e_fr_energy">     -6.93269486 </i>
   <i name="e_wo_entrp">     -6.93267980 </i>
   <i name="e_0_energy">     -0.00003013 </i>
  </energy>
  <time name="totalsc">    3.02    3.02</time>
  <eigenvalues>
   <array>
    <dimension dim="1">band</dimension>
    <dimension dim="2">kpoint</dimension>
    <dimension dim="3">spin</dimension>
    <field>eigene</field>
    <field>occ</field>
    <set>
     <set comment="spin 1">
      <set comment="kpoint 1">
       <r>   -6.8188    1.0000 </r>
       <r>    2.8407    1.0000 </r>
       <r>    3.4225    0.6667 </r>
       <r>    3.4225    0.6667 </r>
       <r>    3.4225    0.6667 </r>
       <r>    6.4094    0.0000 </r>
       <r>    6.4094    0.0000 </r>
       <r>    6.4094    0.0000 </r>
      </set>
      <set comment="kpoint 2">
       <r>   -6.6995    1.0000 </r>
       <r>    1.5043    1.0000 </r>
       <r>    3.2421    1.0000 </r>
       <r>    3.2421    1.0000 </r>
       <r>    4.1533    0.0000 </r>
       <r>    6.6672    0.0000 </r>
       <r>    6.6672    0.0000 </r>
       <r>    6.6991    0.0000 </r>
      </set>
      <set comment="kpoint 3">
       <r>   -6.3675    1.0000 </r>
       <r>   -0.0759    1.0000 </r>
       <r>    2.8981    1.0000 </r>
       <r>    2.8981    1.0000 </r>
       <r>    4.1552    0.0000 </r>
       <r>    7.0876    0.0000 </r>
       <r>    7.0876    0.0000 </r>
       <r>    7.9230    0.0000 </r>
      </set>
      <set comment="kpoint 4">
       <r>   -5.9358    1.0000 </r>
       <r>   -1.3213    1.0000 </r>
       <r>    2.6286    1.0000 </r>
       <r>    2.6286    1.0000 </r>
       <r>    3.9436    0.0000 </r>
       <r>    7.2355    0.0000 </r>
       <r>    7.2355    0.0000 </r>
       <r>    9.3731    0.0000 </r>
      </set>
      <set comment="kpoint 5">
       <r>   -5.7040    1.0000 </r>
       <r>   -1.8332    1.0000 </r>
       <r>    2.5310    1.0000 </r>
       <r>    2.5310    1.0000 </r>
       <r>    3.8562    0.0000 </r>
       <r>    7.2335    0.0000 </r>
       <r>    7.2335    0.0000 </r>
       <r>    9.5393    0.0000 </r>
      </set>
      <set comment="kpoint 6">
       <r>   -6.6591    1.0000 </r>
       <r>    1.3956    1.0000 </r>
       <r>    2.9364    1.0000 </r>
       <r>    2.9364    1.0000 </r>
       <r>    4.7526    0.0000 </r>
       <r>    5.9371    0.0000 </r>
       <r>    7.1179    0.0000 </r>
       <r>    7.1179    0.0000 </r>
      </set>
      <set comment="kpoint 7">
       <r>   -6.3950    1.0000 </r>
       <r>    0.2204    1.0000 </r>
       <r>    2.5195    1.0000 </r>
       <r>    2.5638    1.0000 </r>
       <r>    5.0490    0.0000 </r>
       <r>    6.1044    0.0000 </r>
       <r>    7.6867    0.0000 </r>
       <r>    7.7919    0.0000 </r>
      </set>
      <set comment="kpoint 8">
       <r>   -5.9826    1.0000 </r>
       <r>   -1.0198    1.0000 </r>
       <r>    2.0493    1.0000 </r>
       <r>    2.3317    1.0000 </r>
       <r>    4.8972    0.0000 </r>
       <r>    6.7274    0.0000 </r>
       <r>    7.8623    0.0000 </r>
       <r>    8.3711    0.0000 </r>
      </set>
      <set comment="kpoint 9">
       <r>   -5.6489    1.0000 </r>
       <r>   -1.7660    1.0000 </r>
       <r>    1.7247    1.0000 </r>
       <r>    2.3129    1.0000 </r>
       <r>    4.7543    0.0000 </r>
       <r>    6.9848    0.0000 </r>
       <r>    7.7086    0.0000 </r>
       <r>    9.4424    0.0000 </r>
      </set>
      <set comment="kpoint 10">
       <r>   -5.7311    1.0000 </r>
       <r>   -1.5963    1.0000 </r>
       <r>    1.6389    1.0000 </r>
       <r>    2.5073    1.0000 </r>
       <r>    4.7512    0.0000 </r>
       <r>    7.1650    0.0000 </r>
       <r>    7.4967    0.0000 </r>
       <r>    9.4050    0.0000 </r>
      </set>
      <set comment="kpoint 11">
       <r>   -6.1310    1.0000 </r>
       <r>   -0.6352    1.0000 </r>
       <r>    1.8452    1.0000 </r>
       <r>    2.8547    1.0000 </r>
       <r>    4.8493    0.0000 </r>
       <r>    7.1918    0.0000 </r>
       <r>    7.2238    0.0000 </r>
       <r>    8.1836    0.0000 </r>
      </set>
      <set comment="kpoint 12">
       <r>   -6.5077    1.0000 </r>
       <r>    0.5957    1.0000 </r>
       <r>    2.4233    1.0000 </r>
       <r>    3.1940    1.0000 </r>
       <r>    4.7247    0.0000 </r>
       <r>    6.6670    0.0000 </r>
       <r>    6.7627    0.0000 </r>
       <r>    7.6242    0.0000 </r>
      </set>
      <set comment="kpoint 13">
       <r>   -6.2058    1.0000 </r>
       <r>   -0.1992    1.0000 </r>
       <r>    2.1588    1.0000 </r>
       <r>    2.1588    1.0000 </r>
       <r>    5.0374    0.0000 </r>
       <r>    5.8178    0.0000 </r>
       <r>    8.5449    0.0000 </r>
       <r>    8.5449    0.0000 </r>
      </set>
      <set comment="kpoint 14">
       <r>   -5.8510    1.0000 </r>
       <r>   -1.0496    1.0000 </r>
       <r>    1.6296    1.0000 </r>
       <r>    1.9047    1.0000 </r>
       <r>    5.1524    0.0000 </r>
       <r>    5.9679    0.0000 </r>
       <r>    8.4797    0.0000 </r>
       <r>    9.0189    0.0000 </r>
      </set>
      <set comment="kpoint 15">
       <r>   -5.4956    1.0000 </r>
       <r>   -1.7356    1.0000 </r>
       <r>    1.0412    1.0000 </r>
       <r>    1.8834    1.0000 </r>
       <r>    5.1850    0.0000 </r>
       <r>    6.9621    0.0000 </r>
       <r>    8.3958    0.0000 </r>
       <r>    8.8802    0.0000 </r>
      </set>
      <set comment="kpoint 16">
       <r>   -5.4463    1.0000 </r>
       <r>   -1.8153    1.0000 </r>
       <r>    0.7566    1.0000 </r>
       <r>    2.0988    1.0000 </r>
       <r>    5.2592    0.0000 </r>
       <r>    7.5888    0.0000 </r>
       <r>    8.4756    0.0000 </r>
       <r>    9.0878    0.0000 </r>
      </set>
      <set comment="kpoint 17">
       <r>   -5.7571    1.0000 </r>
       <r>   -1.2894    1.0000 </r>
       <r>    0.9753    1.0000 </r>
       <r>    2.4844    1.0000 </r>
       <r>    5.3297    0.0000 </r>
       <r>    7.7639    0.0000 </r>
       <r>    7.8515    0.0000 </r>
       <r>    8.0363    0.0000 </r>
      </set>
      <set comment="kpoint 18">
       <r>   -5.5796    1.0000 </r>
       <r>   -1.5345    1.0000 </r>
       <r>    1.6050    1.0000 </r>
       <r>    1.6050    1.0000 </r>
       <r>    4.7450    0.0000 </r>
       <r>    5.3525    0.0000 </r>
       <r>   10.1154    0.0000 </r>
       <r>   10.1154    0.0000 </r>
      </set>
      <set comment="kpoint 19">
       <r>   -5.3024    1.0000 </r>
       <r>   -1.9753    1.0000 </r>
       <r>    1.1385    1.0000 </r>
       <r>    1.5374    1.0000 </r>
       <r>    4.9384    0.0000 </r>
       <r>    5.6177    0.0000 </r>
       <r>    9.8793    0.0000 </r>
       <r>   10.3034    0.0000 </r>
      </set>
      <set comment="kpoint 20">
       <r>   -5.2413    1.0000 </r>
       <r>   -2.0316    1.0000 </r>
       <r>    0.6439    1.0000 </r>
       <r>    1.7198    1.0000 </r>
       <r>    5.0851    0.0000 </r>
       <r>    7.0122    0.0000 </r>
       <r>    9.4309    0.0000 </r>
       <r>    9.6193    0.0000 </r>
      </set>
      <set comment="kpoint 21">
       <r>   -5.2049    1.0000 </r>
       <r>   -2.1506    1.0000 </r>
       <r>    1.4105    1.0000 </r>
       <r>    1.4105    1.0000 </r>
       <r>    4.7992    0.0000 </r>
       <r>    4.9069    0.0000 </r>
       <r>   11.1337    0.0000 </r>
       <r>   11.1337    0.0000 </r>
      </set>
      <set comment="kpoint 22">
       <r>   -6.0834    1.0000 </r>
       <r>   -0.5937    1.0000 </r>
       <r>    1.6615    1.0000 </r>
       <r>    2.4306    1.0000 </r>
       <r>    5.4964    0.0000 </r>
       <r>    6.1758    0.0000 </r>
       <r>    7.8104    0.0000 </r>
       <r>    8.3445    0.0000 </r>
      </set>
      <set comment="kpoint 23">
       <r>   -5.6845    1.0000 </r>
       <r>   -1.4487    1.0000 </r>
       <r>    1.1651    1.0000 </r>
       <r>    2.1193    1.0000 </r>
       <r>    5.5636    0.0000 </r>
       <r>    6.7972    0.0000 </r>
       <r>    7.8461    0.0000 </r>
       <r>    8.8456    0.0000 </r>
      </set>
      <set comment="kpoint 24">
       <r>   -5.4744    1.0000 </r>
       <r>   -1.8407    1.0000 </r>
       <r>    1.0204    1.0000 </r>
       <r>    1.9762    1.0000 </r>
       <r>    5.5262    0.0000 </r>
       <r>    6.9041    0.0000 </r>
       <r>    8.3251    0.0000 </r>
       <r>    9.3437    0.0000 </r>
      </set>
      <set comment="kpoint 25">
       <r>   -5.5162    1.0000 </r>
       <r>   -1.6270    1.0000 </r>
       <r>    1.1890    1.0000 </r>
       <r>    1.5939    1.0000 </r>
       <r>    5.5575    0.0000 </r>
       <r>    5.9420    0.0000 </r>
       <r>    8.3577    0.0000 </r>
       <r>   10.0195    0.0000 </r>
      </set>
      <set comment="kpoint 26">
       <r>   -5.2822    1.0000 </r>
       <r>   -1.9638    1.0000 </r>
       <r>    0.7701    1.0000 </r>
       <r>    1.4719    1.0000 </r>
       <r>    5.7761    0.0000 </r>
       <r>    7.0251    0.0000 </r>
       <r>    8.1148    0.0000 </r>
       <r>    9.4360    0.0000 </r>
      </set>
      <set comment="kpoint 27">
       <r>   -5.3705    1.0000 </r>
       <r>   -1.8409    1.0000 </r>
       <r>    0.6742    1.0000 </r>
       <r>    1.7142    1.0000 </r>
       <r>    5.9071    0.0000 </r>
       <r>    7.5608    0.0000 </r>
       <r>    7.6579    0.0000 </r>
       <r>    9.3491    0.0000 </r>
      </set>
      <set comment="kpoint 28">
       <r>   -5.1947    1.0000 </r>
       <r>   -2.1042    1.0000 </r>
       <r>    1.1159    1.0000 </r>
       <r>    1.1917    1.0000 </r>
       <r>    5.5480    0.0000 </r>
       <r>    5.6716    0.0000 </r>
       <r>    9.6639    0.0000 </r>
       <r>    9.8063    0.0000 </r>
      </set>
      <set comment="kpoint 29">
       <r>   -5.1844    1.0000 </r>
       <r>   -2.0542    1.0000 </r>
       <r>    0.8667    1.0000 </r>
       <r>    1.0090    1.0000 </r>
       <r>    6.6763    0.0000 </r>
       <r>    7.3977    0.0000 </r>
       <r>    7.5128    0.0000 </r>
       <r>    8.3594    0.0000 </r>
      </set>
     </set>
    </set>
   </array>
  </eigenvalues>
  <separator name="orbital magnetization" >
   <v name="MAGDIPOLOUT">      0.00000000      0.00000000      0.00000000</v>
  </separator>
  <dos>
   <i name="efermi">      3.42551791 </i>
   <total>
    <array>
     <dimension dim="1">gridpoints</dimension>
     <dimension dim="2">spin</dimension>
     <field>energy</field>
     <field>total</field>
     <field>integrated</field>
     <set>
      <set comment="spin 1">
       <r>    -7.7164     0.0000     0.0000 </r>
       <r>    -5.7416     0.0266     0.7127 </r>
       <r>    -3.7668     0.0000     2.0000 </r>
       <r>    -1.7921     0.1503     2.7070 </r>
       <r>     0.1827     0.0000     3.8008 </r>
       <r>     2.1575     0.1526     6.8989 </r>
       <r>     4.1322     0.0000     8.0508 </r>
       <r>     6.1070     0.0307    10.4473 </r>
       <r>     8.0818     0.0237    13.3750 </r>
       <r>    10.0566     0.0475    15.8359 </r>
       <r>    12.0313     0.0000    16.0000 </r>
      </set>
     </set>
    </array>
   </total>
   <partial>
    <array>
     <dimension dim="1">gridpoints</dimension>
     <dimension dim="2">spin</dimension>
     <dimension dim="3">ion</dimension>
     <field>energy</field>
     <field>  s  </field>
     <field>  p  </field>
     <field>  d  </field>
     <set>
      <set comment="ion 1">
       <set comment="spin 1">
        <r>    -7.7164     0.0000     0.0000     0.0000 </r>
        <r>    -5.7416     0.0034     0.0013     0.0002 </r>
        <r>    -3.7668     0.0000     0.0000     0.0000 </r>
        <r>    -1.7921     0.0806     0.0058     0.0003 </r>
        <r>     0.1827     0.0000     0.0000     0.0000 </r>
        <r>     2.1575     0.0004     0.0407     0.0039 </r>
        <r>     4.1322     0.0000     0.0000     0.0000 </r>
        <r>     6.1070     0.0005     0.0122     0.0006 </r>
        <r>     8.0818     0.0000     0.0054     0.0026 </r>
        <r>    10.0566     0.0003     0.0172     0.0033 </r>
        <r>    12.0313     0.0000     0.0000     0.0000 </r>
       </set>
      </set>
      <set comment="ion 2">
       <set comment="spin 1">
        <r>    -7.7164     0.0000     0.0000     0.0000 </r>
        <r>    -5.7416     0.0129     0.0001     0.0000 </r>
        <r>    -3.7668     0.0000     0.0000     0.0000 </r>
        <r>    -1.7921     0.0050     0.0165     0.0005 </r>
        <r>     0.1827     0.0000     0.0000     0.0000 </r>
        <r>     2.1575     0.0001     0.0436     0.0004 </r>
        <r>     4.1322     0.0000     0.0000     0.0000 </r>
        <r>     6.1070     0.0015     0.0010     0.0010 </r>
        <r>     8.0818     0.0013     0.0026     0.0005 </r>
        <r>    10.0566     0.0002     0.0078     0.0023 </r>
        <r>    12.0313     0.0000     0.0000     0.0000 </r>
       </set>
      </set>
     </set>
    </array>
   </partial>
  </dos>
  <projected>
   <eigenvalues>
    <array>
     <dimension dim="1">band</dimension>
     <dimension dim="2">kpoint</dimension>
     <dimension dim="3">spin</dimension>
     <field>eigene</field>
     <field>occ</field>
     <set>
      <set comment="spin 1">
       <set comment="kpoint 1">
        <r>   -6.8188    1.0000 </r>
        <r>    2.8407    1.0000 </r>
        <r>    3.4225    0.6667 </r>
        <r>    3.4225    0.6667 </r>
        <r>    3.4225    0.6667 </r>
        <r>    6.4094    0.0000 </r>
        <r>    6.4094    0.0000 </r>
        <r>    6.4094    0.0000 </r>
       </set>
       <set comment="kpoint 2">
        <r>   -6.6995    1.0000 </r>
        <r>    1.5043    1.0000 </r>
        <r>    3.2421    1.0000 </r>
        <r>    3.2421    1.0000 </r>
        <r>    4.1533    0.0000 </r>
        <r>    6.6672    0.0000 </r>
        <r>    6.6672    0.0000 </r>
        <r>    6.6991    0.0000 </r>
       </set>
       <set comment="kpoint 3">
        <r>   -6.3675    1.0000 </r>
        <r>   -0.0759    1.0000 </r>
        <r>    2.8981    1.0000 </r>
        <r>    2.8981    1.0000 </r>
        <r>    4.1552    0.0000 </r>
        <r>    7.0876    0.0000 </r>
        <r>    7.0876    0.0000 </r>
        <r>    7.9230    0.0000 </r>
       </set>
       <set comment="kpoint 4">
        <r>   -5.9358    1.0000 </r>
        <r>   -1.3213    1.0000 </r>
        <r>    2.6286    1.0000 </r>
        <r>    2.6286    1.0000 </r>
        <r>    3.9436    0.0000 </r>
        <r>    7.2355    0.0000 </r>
        <r>    7.2355    0.0000 </r>
        <r>    9.3731    0.0000 </r>
       </set>
       <set comment="kpoint 5">
        <r>   -5.7040    1.0000 </r>
        <r>   -1.8332    1.0000 </r>
        <r>    2.5310    1.0000 </r>
        <r>    2.5310    1.0000 </r>
        <r>    3.8562    0.0000 </r>
        <r>    7.2335    0.0000 </r>
        <r>    7.2335    0.0000 </r>
        <r>    9.5393    0.0000 </r>
       </set>
       <set comment="kpoint 6">
        <r>   -6.6591    1.0000 </r>
        <r>    1.3956    1.0000 </r>
        <r>    2.9364    1.0000 </r>
        <r>    2.9364    1.0000 </r>
        <r>    4.7526    0.0000 </r>
        <r>    5.9371    0.0000 </r>
        <r>    7.1179    0.0000 </r>
        <r>    7.1179    0.0000 </r>
       </set>
       <set comment="kpoint 7">
        <r>   -6.3950    1.0000 </r>
        <r>    0.2204    1.0000 </r>
        <r>    2.5195    1.0000 </r>
        <r>    2.5638    1.0000 </r>
        <r>    5.0490    0.0000 </r>
        <r>    6.1044    0.0000 </r>
        <r>    7.6867    0.0000 </r>
        <r>    7.7919    0.0000 </r>
       </set>
       <set comment="kpoint 8">
        <r>   -5.9826    1.0000 </r>
        <r>   -1.0198    1.0000 </r>
        <r>    2.0493    1.0000 </r>
        <r>    2.3317    1.0000 </r>
        <r>    4.8972    0.0000 </r>
        <r>    6.7274    0.0000 </r>
        <r>    7.8623    0.0000 </r>
        <r>    8.3711    0.0000 </r>
       </set>
       <set comment="kpoint 9">
        <r>   -5.6489    1.0000 </r>
        <r>   -1.7660    1.0000 </r>
        <r>    1.7247    1.0000 </r>
        <r>    2.3129    1.0000 </r>
        <r>    4.7543    0.0000 </r>
        <r>    6.9848    0.0000 </r>
        <r>    7.7086    0.0000 </r>
        <r>    9.4424    0.0000 </r>
       </set>
       <set comment="kpoint 10">
        <r>   -5.7311    1.0000 </r>
        <r>   -1.5963    1.0000 </r>
        <r>    1.6389    1.0000 </r>
        <r>    2.5073    1.0000 </r>
        <r>    4.7512    0.0000 </r>
        <r>    7.1650    0.0000 </r>
        <r>    7.4967    0.0000 </r>
        <r>    9.4050    0.0000 </r>
       </set>
       <set comment="kpoint 11">
        <r>   -6.1310    1.0000 </r>
        <r>   -0.6352    1.0000 </r>
        <r>    1.8452    1.0000 </r>
        <r>    2.8547    1.0000 </r>
        <r>    4.8493    0.0000 </r>
        <r>    7.1918    0.0000 </r>
        <r>    7.2238    0.0000 </r>
        <r>    8.1836    0.0000 </r>
       </set>
       <set comment="kpoint 12">
        <r>   -6.5077    1.0000 </r>
        <r>    0.5957    1.0000 </r>
        <r>    2.4233    1.0000 </r>
        <r>    3.1940    1.0000 </r>
        <r>    4.7247    0.0000 </r>
        <r>    6.6670    0.0000 </r>
        <r>    6.7627    0.0000 </r>
        <r>    7.6242    0.0000 </r>
       </set>
       <set comment="kpoint 13">
        <r>   -6.2058    1.0000 </r>
        <r>   -0.1992    1.0000 </r>
        <r>    2.1588    1.0000 </r>
        <r>    2.1588    1.0000 </r>
        <r>    5.0374    0.0000 </r>
        <r>    5.8178    0.0000 </r>
        <r>    8.5449    0.0000 </r>
        <r>    8.5449    0.0000 </r>
       </set>
       <set comment="kpoint 14">
        <r>   -5.8510    1.0000 </r>
        <r>   -1.0496    1.0000 </r>
        <r>    1.6296    1.0000 </r>
        <r>    1.9047    1.0000 </r>
        <r>    5.1524    0.0000 </r>
        <r>    5.9679    0.0000 </r>
        <r>    8.4797    0.0000 </r>
        <r>    9.0189    0.0000 </r>
       </set>
       <set comment="kpoint 15">
        <r>   -5.4956    1.0000 </r>
        <r>   -1.7356    1.0000 </r>
        <r>    1.0412    1.0000 </r>
        <r>    1.8834    1.0000 </r>
        <r>    5.1850    0.0000 </r>
        <r>    6.9621    0.0000 </r>
        <r>    8.3958    0.0000 </r>
        <r>    8.8802    0.0000 </r>
       </set>
       <set comment="kpoint 16">
        <r>   -5.4463    1.0000 </r>
        <r>   -1.8153    1.0000 </r>
        <r>    0.7566    1.0000 </r>
        <r>    2.0988    1.0000 </r>
        <r>    5.2592    0.0000 </r>
        <r>    7.5888    0.0000 </r>
        <r>    8.4756    0.0000 </r>
        <r>    9.0878    0.0000 </r>
       </set>
       <set comment="kpoint 17">
        <r>   -5.7571    1.0000 </r>
        <r>   -1.2894    1.0000 </r>
        <r>    0.9753    1.0000 </r>
        <r>    2.4844    1.0000 </r>
        <r>    5.3297    0.0000 </r>
        <r>    7.7639    0.0000 </r>
        <r>    7.8515    0.0000 </r>
        <r>    8.0363    0.0000 </r>
       </set>
       <set comment="kpoint 18">
        <r>   -5.5796    1.0000 </r>
        <r>   -1.5345    1.0000 </r>
        <r>    1.6050    1.0000 </r>
        <r>    1.6050    1.0000 </r>
        <r>    4.7450    0.0000 </r>
        <r>    5.3525    0.0000 </r>
        <r>   10.1154    0.0000 </r>
        <r>   10.1154    0.0000 </r>
       </set>
       <set comment="kpoint 19">
        <r>   -5.3024    1.0000 </r>
        <r>   -1.9753    1.0000 </r>
        <r>    1.1385    1.0000 </r>
        <r>    1.5374    1.0000 </r>
        <r>    4.9384    0.0000 </r>
        <r>    5.6177    0.0000 </r>
        <r>    9.8793    0.0000 </r>
        <r>   10.3034    0.0000 </r>
       </set>
       <set comment="kpoint 20">
        <r>   -5.2413    1.0000 </r>
        <r>   -2.0316    1.0000 </r>
        <r>    0.6439    1.0000 </r>
        <r>    1.7198    1.0000 </r>
        <r>    5.0851    0.0000 </r>
        <r>    7.0122    0.0000 </r>
        <r>    9.4309    0.0000 </r>
        <r>    9.6193    0.0000 </r>
       </set>
       <set comment="kpoint 21">
        <r>   -5.2049    1.0000 </r>
        <r>   -2.1506    1.0000 </r>
        <r>    1.4105    1.0000 </r>
        <r>    1.4105    1.0000 </r>
        <r>    4.7992    0.0000 </r>
        <r>    4.9069    0.0000 </r>
        <r>   11.1337    0.0000 </r>
        <r>   11.1337    0.0000 </r>
       </set>
       <set comment="kpoint 22">
        <r>   -6.0834    1.0000 </r>
        <r>   -0.5937    1.0000 </r>
        <r>    1.6615    1.0000 </r>
        <r>    2.4306    1.0000 </r>
        <r>    5.4964    0.0000 </r>
        <r>    6.1758    0.0000 </r>
        <r>    7.8104    0.0000 </r>
        <r>    8.3445    0.0000 </r>
       </set>
       <set comment="kpoint 23">
        <r>   -5.6845    1.0000 </r>
        <r>   -1.4487    1.0000 </r>
        <r>    1.1651    1.0000 </r>
        <r>    2.1193    1.0000 </r>
        <r>    5.5636    0.0000 </r>
        <r>    6.7972    0.0000 </r>
        <r>    7.8461    0.0000 </r>
        <r>    8.8456    0.0000 </r>
       </set>
       <set comment="kpoint 24">
        <r>   -5.4744    1.0000 </r>
        <r>   -1.8407    1.0000 </r>
        <r>    1.0204    1.0000 </r>
        <r>    1.9762    1.0000 </r>
        <r>    5.5262    0.0000 </r>
        <r>    6.9041    0.0000 </r>
        <r>    8.3251    0.0000 </r>
        <r>    9.3437    0.0000 </r>
       </set>
       <set comment="kpoint 25">
        <r>   -5.5162    1.0000 </r>
        <r>   -1.6270    1.0000 </r>
        <r>    1.1890    1.0000 </r>
        <r>    1.5939    1.0000 </r>
        <r>    5.5575    0.0000 </r>
        <r>    5.9420    0.0000 </r>
        <r>    8.3577    0.0000 </r>
        <r>   10.0195    0.0000 </r>
       </set>
       <set comment="kpoint 26">
        <r>   -5.2822    1.0000 </r>
        <r>   -1.9638    1.0000 </r>
        <r>    0.7701    1.0000 </r>
        <r>    1.4719    1.0000 </r>
        <r>    5.7761    0.0000 </r>
        <r>    7.0251    0.0000 </r>
        <r>    8.1148    0.0000 </r>
        <r>    9.4360    0.0000 </r>
       </set>
       <set comment="kpoint 27">
        <r>   -5.3705    1.0000 </r>
        <r>   -1.8409    1.0000 </r>
        <r>    0.6742    1.0000 </r>
        <r>    1.7142    1.0000 </r>
        <r>    5.9071    0.0000 </r>
        <r>    7.5608    0.0000 </r>
        <r>    7.6579    0.0000 </r>
        <r>    9.3491    0.0000 </r>
       </set>
       <set comment="kpoint 28">
        <r>   -5.1947    1.0000 </r>
        <r>   -2.1042    1.0000 </r>
        <r>    1.1159    1.0000 </r>
        <r>    1.1917    1.0000 </r>
        <r>    5.5480    0.0000 </r>
        <r>    5.6716    0.0000 </r>
        <r>    9.6639    0.0000 </r>
        <r>    9.8063    0.0000 </r>
       </set>
       <set comment="kpoint 29">
        <r>   -5.1844    1.0000 </r>
        <r>   -2.0542    1.0000 </r>
        <r>    0.8667    1.0000 </r>
        <r>    1.0090    1.0000 </r>
        <r>    6.6763    0.0000 </r>
        <r>    7.3977    0.0000 </r>
        <r>    7.5128    0.0000 </r>
        <r>    8.3594    0.0000 </r>
       </set>
      </set>
     </set>
    </array>
   </eigenvalues>
   <array>
    <dimension dim="1">ion</dimension>
    <dimension dim="2">band</dimension>
    <dimension dim="3">kpoint</dimension>
    <dimension dim="4">spin</dimension>
    <field>  s  </field>
    <field>  p  </field>
    <field>  d  </field>
    <set>
     <set comment="spin1">
      <set comment="kpoint 1">
       <set comment="band 1">
        <r>  0.2519  0.0000  0.0000 </r>
        <r>  0.4030  0.0000  0.0000 </r>
       </set>
       <set comment="band 2">
        <r>  0.5199  0.0000  0.0000 </r>
        <r>  0.3100  0.0000  0.0000 </r>
       </set>
       <set comment="band 3">
        <r>  0.0000  0.1453  0.0790 </r>
        <r>  0.0000  0.3852  0.0030 </r>
       </set>
       <set comment="band 4">
        <r>  0.0000  0.1453  0.0790 </r>
        <r>  0.0000  0.3852  0.0030 </r>
       </set>
       <set comment="band 5">
        <r>  0.0000  0.1453  0.0790 </r>
        <r>  0.0000  0.3852  0.0030 </r>
       </set>
       <set comment="band 6">
        <r>  0.0000  0.5012  0.0151 </r>
        <r>  0.0000  0.0334  0.0474 </r>
       </set>
       <set comment="band 7">
        <r>  0.0000  0.5012  0.0151 </r>
        <r>  0.0000  0.0334  0.0474 </r>
       </set>
       <set comment="band 8">
        <r>  0.0000  0.5012  0.0151 </r>
        <r>  0.0000  0.0334  0.0474 </r>
       </set>
      </set>
      <set comment="kpoint 2">
       <set comment="band 1">
        <r>  0.2411  0.0053  0.0007 </r>
        <r>  0.4089  0.0008  0.0000 </r>
       </set>
       <set comment="band 2">
        <r>  0.3156  0.0805  0.0280 </r>
        <r>  0.1646  0.1369  0.0025 </r>
       </set>
       <set comment="band 3">
        <r>  0.0000  0.1751  0.0678 </r>
        <r>  0.0000  0.3641  0.0034 </r>
       </set>
       <set comment="band 4">
        <r>  0.0000  0.1751  0.0678 </r>
        <r>  0.0000  0.3641  0.0034 </r>
       </set>
       <set comment="band 5">
        <r>  0.2240  0.1191  0.0243 </r>
        <r>  0.1210  0.1808  0.0038 </r>
       </set>
       <set comment="band 6">
        <r>  0.0000  0.4714  0.0257 </r>
        <r>  0.0000  0.0539  0.0470 </r>
       </set>
       <set comment="band 7">
        <r>  0.0000  0.4714  0.0257 </r>
        <r>  0.0000  0.0539  0.0470 </r>
       </set>
       <set comment="band 8">
        <r>  0.0282  0.3412  0.0370 </r>
        <r>  0.0242  0.0932  0.0370 </r>
       </set>
      </set>
      <set comment="kpoint 3">
       <set comment="band 1">
        <r>  0.2080  0.0200  0.0029 </r>
        <r>  0.4293  0.0024  0.0001 </r>
       </set>
       <set comment="band 2">
        <r>  0.3258  0.0979  0.0180 </r>
        <r>  0.1191  0.1317  0.0024 </r>
       </set>
       <set comment="band 3">
        <r>  0.0000  0.2188  0.0501 </r>
        <r>  0.0000  0.3363  0.0033 </r>
       </set>
       <set comment="band 4">
        <r>  0.0000  0.2188  0.0501 </r>
        <r>  0.0000  0.3363  0.0033 </r>
       </set>
       <set comment="band 5">
        <r>  0.2523  0.1372  0.0119 </r>
        <r>  0.1171  0.0931  0.0100 </r>
       </set>
       <set comment="band 6">
        <r>  0.0000  0.4069  0.0483 </r>
        <r>  0.0000  0.0729  0.0479 </r>
       </set>
       <set comment="band 7">
        <r>  0.0000  0.4069  0.0483 </r>
        <r>  0.0000  0.0729  0.0479 </r>
       </set>
       <set comment="band 8">
        <r>  0.0560  0.1929  0.0479 </r>
        <r>  0.0490  0.1828  0.0232 </r>
       </set>
      </set>
      <set comment="kpoint 4">
       <set comment="band 1">
        <r>  0.1548  0.0390  0.0069 </r>
        <r>  0.4687  0.0025  0.0002 </r>
       </set>
       <set comment="band 2">
        <r>  0.3755  0.0940  0.0063 </r>
        <r>  0.0706  0.1231  0.0018 </r>
       </set>
       <set comment="band 3">
        <r>  0.0000  0.2458  0.0381 </r>
        <r>  0.0000  0.3218  0.0027 </r>
       </set>
       <set comment="band 4">
        <r>  0.0000  0.2458  0.0381 </r>
        <r>  0.0000  0.3218  0.0027 </r>
       </set>
       <set comment="band 5">
        <r>  0.2690  0.1160  0.0162 </r>
        <r>  0.1188  0.0665  0.0121 </r>
       </set>
       <set comment="band 6">
        <r>  0.0000  0.3315  0.0748 </r>
        <r>  0.0000  0.0676  0.0507 </r>
       </set>
       <set comment="band 7">
        <r>  0.0000  0.3315  0.0748 </r>
        <r>  0.0000  0.0676  0.0507 </r>
       </set>
       <set comment="band 8">
        <r>  0.0106  0.1298  0.0573 </r>
        <r>  0.0172  0.1997  0.0092 </r>
       </set>
      </set>
      <set comment="kpoint 5">
       <set comment="band 1">
        <r>  0.1183  0.0494  0.0098 </r>
        <r>  0.4995  0.0011  0.0003 </r>
       </set>
       <set comment="band 2">
        <r>  0.4118  0.0880  0.0006 </r>
        <r>  0.0373  0.1212  0.0015 </r>
       </set>
       <set comment="band 3">
        <r>  0.0000  0.2545  0.0339 </r>
        <r>  0.0000  0.3176  0.0024 </r>
       </set>
       <set comment="band 4">
        <r>  0.0000  0.2545  0.0339 </r>
        <r>  0.0000  0.3176  0.0024 </r>
       </set>
       <set comment="band 5">
        <r>  0.2755  0.1059  0.0186 </r>
        <r>  0.1204  0.0606  0.0126 </r>
       </set>
       <set comment="band 6">
        <r>  0.0000  0.3019  0.0852 </r>
        <r>  0.0000  0.0626  0.0521 </r>
       </set>
       <set comment="band 7">
        <r>  0.0000  0.3019  0.0852 </r>
        <r>  0.0000  0.0626  0.0521 </r>
       </set>
       <set comment="band 8">
        <r>  0.0048  0.0647  0.0550 </r>
        <r>  0.0006  0.0801  0.0052 </r>
       </set>
      </set>
      <set comment="kpoint 6">
       <set comment="band 1">
        <r>  0.2372  0.0072  0.0009 </r>
        <r>  0.4110  0.0011  0.0000 </r>
       </set>
       <set comment="band 2">
        <r>  0.3529  0.0598  0.0288 </r>
        <r>  0.1799  0.1254  0.0025 </r>
       </set>
       <set comment="band 3">
        <r>  0.0000  0.2064  0.0550 </r>
        <r>  0.0000  0.3322  0.0039 </r>
       </set>
       <set comment="band 4">
        <r>  0.0000  0.2064  0.0550 </r>
        <r>  0.0000  0.3322  0.0039 </r>
       </set>
       <set comment="band 5">
        <r>  0.2121  0.0423  0.0462 </r>
        <r>  0.0920  0.2766  0.0003 </r>
       </set>
       <set comment="band 6">
        <r>  0.0099  0.4388  0.0114 </r>
        <r>  0.0333  0.0055  0.0381 </r>
       </set>
       <set comment="band 7">
        <r>  0.0000  0.4359  0.0397 </r>
        <r>  0.0000  0.0886  0.0483 </r>
       </set>
       <set comment="band 8">
        <r>  0.0000  0.4359  0.0397 </r>
        <r>  0.0000  0.0886  0.0483 </r>
       </set>
      </set>
      <set comment="kpoint 7">
       <set comment="band 1">
        <r>  0.2107  0.0192  0.0027 </r>
        <r>  0.4268  0.0024  0.0001 </r>
       </set>
       <set comment="band 2">
        <r>  0.3564  0.0764  0.0223 </r>
        <r>  0.1410  0.1266  0.0027 </r>
       </set>
       <set comment="band 3">
        <r>  0.0269  0.2227  0.0391 </r>
        <r>  0.0104  0.2851  0.0041 </r>
       </set>
       <set comment="band 4">
        <r>  0.0000  0.2392  0.0402 </r>
        <r>  0.0000  0.3084  0.0034 </r>
       </set>
       <set comment="band 5">
        <r>  0.2129  0.0685  0.0378 </r>
        <r>  0.0690  0.2276  0.0069 </r>
       </set>
       <set comment="band 6">
        <r>  0.0159  0.3971  0.0204 </r>
        <r>  0.0481  0.0319  0.0329 </r>
       </set>
       <set comment="band 7">
        <r>  0.0000  0.3894  0.0578 </r>
        <r>  0.0000  0.1092  0.0503 </r>
       </set>
       <set comment="band 8">
        <r>  0.0108  0.2927  0.0639 </r>
        <r>  0.0099  0.1220  0.0439 </r>
       </set>
      </set>
      <set comment="kpoint 8">
       <set comment="band 1">
        <r>  0.1610  0.0379  0.0062 </r>
        <r>  0.4616  0.0031  0.0002 </r>
       </set>
       <set comment="band 2">
        <r>  0.3925  0.0812  0.0105 </r>
        <r>  0.0905  0.1205  0.0023 </r>
       </set>
       <set comment="band 3">
        <r>  0.0506  0.2258  0.0285 </r>
        <r>  0.0189  0.2502  0.0038 </r>
       </set>
       <set comment="band 4">
        <r>  0.0000  0.2587  0.0309 </r>
        <r>  0.0000  0.2997  0.0027 </r>
       </set>
       <set comment="band 5">
        <r>  0.1949  0.1208  0.0313 </r>
        <r>  0.0752  0.1696  0.0114 </r>
       </set>
       <set comment="band 6">
        <r>  0.0210  0.3281  0.0466 </r>
        <r>  0.0223  0.0652  0.0374 </r>
       </set>
       <set comment="band 7">
        <r>  0.0000  0.3254  0.0808 </r>
        <r>  0.0000  0.0978  0.0532 </r>
       </set>
       <set comment="band 8">
        <r>  0.0162  0.1547  0.0916 </r>
        <r>  0.0177  0.1174  0.0403 </r>
       </set>
      </set>
      <set comment="kpoint 9">
       <set comment="band 1">
        <r>  0.1083  0.0535  0.0102 </r>
        <r>  0.5042  0.0016  0.0002 </r>
       </set>
       <set comment="band 2">
        <r>  0.4412  0.0751  0.0019 </r>
        <r>  0.0419  0.1180  0.0020 </r>
       </set>
       <set comment="band 3">
        <r>  0.0567  0.2296  0.0231 </r>
        <r>  0.0210  0.2366  0.0032 </r>
       </set>
       <set comment="band 4">
        <r>  0.0000  0.2643  0.0286 </r>
        <r>  0.0000  0.3022  0.0024 </r>
       </set>
       <set comment="band 5">
        <r>  0.1991  0.1323  0.0287 </r>
        <r>  0.0814  0.1454  0.0125 </r>
       </set>
       <set comment="band 6">
        <r>  0.0118  0.2512  0.0736 </r>
        <r>  0.0092  0.0662  0.0429 </r>
       </set>
       <set comment="band 7">
        <r>  0.0000  0.2934  0.0901 </r>
        <r>  0.0000  0.0815  0.0538 </r>
       </set>
       <set comment="band 8">
        <r>  0.0112  0.1789  0.0747 </r>
        <r>  0.0104  0.1572  0.0267 </r>
       </set>
      </set>
      <set comment="kpoint 10">
       <set comment="band 1">
        <r>  0.1229  0.0494  0.0091 </r>
        <r>  0.4922  0.0022  0.0002 </r>
       </set>
       <set comment="band 2">
        <r>  0.4275  0.0776  0.0038 </r>
        <r>  0.0550  0.1182  0.0021 </r>
       </set>
       <set comment="band 3">
        <r>  0.0496  0.2351  0.0218 </r>
        <r>  0.0177  0.2359  0.0031 </r>
       </set>
       <set comment="band 4">
        <r>  0.0000  0.2549  0.0339 </r>
        <r>  0.0000  0.3143  0.0026 </r>
       </set>
       <set comment="band 5">
        <r>  0.2056  0.1384  0.0250 </r>
        <r>  0.0855  0.1393  0.0122 </r>
       </set>
       <set comment="band 6">
        <r>  0.0092  0.2391  0.0793 </r>
        <r>  0.0076  0.0711  0.0445 </r>
       </set>
       <set comment="band 7">
        <r>  0.0000  0.3210  0.0774 </r>
        <r>  0.0000  0.0752  0.0509 </r>
       </set>
       <set comment="band 8">
        <r>  0.0217  0.1700  0.0625 </r>
        <r>  0.0192  0.2004  0.0202 </r>
       </set>
      </set>
      <set comment="kpoint 11">
       <set comment="band 1">
        <r>  0.1805  0.0309  0.0048 </r>
        <r>  0.4476  0.0031  0.0001 </r>
       </set>
       <set comment="band 2">
        <r>  0.3756  0.0831  0.0141 </r>
        <r>  0.1082  0.1225  0.0025 </r>
       </set>
       <set comment="band 3">
        <r>  0.0316  0.2401  0.0254 </r>
        <r>  0.0093  0.2482  0.0036 </r>
       </set>
       <set comment="band 4">
        <r>  0.0000  0.2281  0.0465 </r>
        <r>  0.0000  0.3365  0.0031 </r>
       </set>
       <set comment="band 5">
        <r>  0.2126  0.1434  0.0197 </r>
        <r>  0.0902  0.1517  0.0100 </r>
       </set>
       <set comment="band 6">
        <r>  0.0000  0.3991  0.0488 </r>
        <r>  0.0000  0.0702  0.0468 </r>
       </set>
       <set comment="band 7">
        <r>  0.0191  0.2866  0.0656 </r>
        <r>  0.0201  0.0867  0.0418 </r>
       </set>
       <set comment="band 8">
        <r>  0.0276  0.1748  0.0639 </r>
        <r>  0.0261  0.1597  0.0305 </r>
       </set>
      </set>
      <set comment="kpoint 12">
       <set comment="band 1">
        <r>  0.2225  0.0140  0.0019 </r>
        <r>  0.4197  0.0019  0.0001 </r>
       </set>
       <set comment="band 2">
        <r>  0.3391  0.0805  0.0243 </r>
        <r>  0.1488  0.1306  0.0027 </r>
       </set>
       <set comment="band 3">
        <r>  0.0114  0.2314  0.0385 </r>
        <r>  0.0012  0.2838  0.0044 </r>
       </set>
       <set comment="band 4">
        <r>  0.0000  0.1884  0.0629 </r>
        <r>  0.0000  0.3639  0.0032 </r>
       </set>
       <set comment="band 5">
        <r>  0.2226  0.1268  0.0198 </r>
        <r>  0.1050  0.1851  0.0050 </r>
       </set>
       <set comment="band 6">
        <r>  0.0275  0.3098  0.0469 </r>
        <r>  0.0305  0.0816  0.0364 </r>
       </set>
       <set comment="band 7">
        <r>  0.0000  0.4619  0.0279 </r>
        <r>  0.0000  0.0515  0.0460 </r>
       </set>
       <set comment="band 8">
        <r>  0.0092  0.3308  0.0514 </r>
        <r>  0.0102  0.1342  0.0423 </r>
       </set>
      </set>
      <set comment="kpoint 13">
       <set comment="band 1">
        <r>  0.1887  0.0287  0.0039 </r>
        <r>  0.4397  0.0034  0.0001 </r>
       </set>
       <set comment="band 2">
        <r>  0.4122  0.0516  0.0219 </r>
        <r>  0.1402  0.1164  0.0030 </r>
       </set>
       <set comment="band 3">
        <r>  0.0000  0.2621  0.0282 </r>
        <r>  0.0000  0.2868  0.0028 </r>
       </set>
       <set comment="band 4">
        <r>  0.0000  0.2621  0.0282 </r>
        <r>  0.0000  0.2868  0.0028 </r>
       </set>
       <set comment="band 5">
        <r>  0.1607  0.1013  0.0500 </r>
        <r>  0.0008  0.1225  0.0249 </r>
       </set>
       <set comment="band 6">
        <r>  0.0651  0.2677  0.0224 </r>
        <r>  0.0986  0.1062  0.0138 </r>
       </set>
       <set comment="band 7">
        <r>  0.0000  0.3699  0.0677 </r>
        <r>  0.0000  0.1398  0.0530 </r>
       </set>
       <set comment="band 8">
        <r>  0.0000  0.3699  0.0677 </r>
        <r>  0.0000  0.1398  0.0530 </r>
       </set>
      </set>
      <set comment="kpoint 14">
       <set comment="band 1">
        <r>  0.1405  0.0465  0.0071 </r>
        <r>  0.4724  0.0038  0.0001 </r>
       </set>
       <set comment="band 2">
        <r>  0.4617  0.0458  0.0137 </r>
        <r>  0.1005  0.1118  0.0030 </r>
       </set>
       <set comment="band 3">
        <r>  0.0151  0.2619  0.0191 </r>
        <r>  0.0038  0.2515  0.0026 </r>
       </set>
       <set comment="band 4">
        <r>  0.0000  0.2763  0.0204 </r>
        <r>  0.0000  0.2781  0.0020 </r>
       </set>
       <set comment="band 5">
        <r>  0.1411  0.1066  0.0539 </r>
        <r>  0.0150  0.1235  0.0243 </r>
       </set>
       <set comment="band 6">
        <r>  0.0693  0.2247  0.0382 </r>
        <r>  0.0675  0.0993  0.0190 </r>
       </set>
       <set comment="band 7">
        <r>  0.0123  0.2207  0.0948 </r>
        <r>  0.0199  0.0975  0.0487 </r>
       </set>
       <set comment="band 8">
        <r>  0.0000  0.3263  0.0848 </r>
        <r>  0.0000  0.1379  0.0564 </r>
       </set>
      </set>
      <set comment="kpoint 15">
       <set comment="band 1">
        <r>  0.0774  0.0653  0.0114 </r>
        <r>  0.5212  0.0022  0.0002 </r>
       </set>
       <set comment="band 2">
        <r>  0.5255  0.0378  0.0046 </r>
        <r>  0.0455  0.1097  0.0029 </r>
       </set>
       <set comment="band 3">
        <r>  0.0253  0.2528  0.0141 </r>
        <r>  0.0075  0.2233  0.0020 </r>
       </set>
       <set comment="band 4">
        <r>  0.0000  0.2806  0.0186 </r>
        <r>  0.0000  0.2796  0.0018 </r>
       </set>
       <set comment="band 5">
        <r>  0.1335  0.1295  0.0502 </r>
        <r>  0.0405  0.1073  0.0220 </r>
       </set>
       <set comment="band 6">
        <r>  0.0842  0.1689  0.0427 </r>
        <r>  0.0326  0.1696  0.0237 </r>
       </set>
       <set comment="band 7">
        <r>  0.0026  0.2235  0.1048 </r>
        <r>  0.0281  0.0582  0.0456 </r>
       </set>
       <set comment="band 8">
        <r>  0.0000  0.2860  0.0957 </r>
        <r>  0.0000  0.1177  0.0579 </r>
       </set>
      </set>
      <set comment="kpoint 16">
       <set comment="band 1">
        <r>  0.0677  0.0670  0.0124 </r>
        <r>  0.5307  0.0016  0.0002 </r>
       </set>
       <set comment="band 2">
        <r>  0.5374  0.0385  0.0025 </r>
        <r>  0.0347  0.1093  0.0031 </r>
       </set>
       <set comment="band 3">
        <r>  0.0214  0.2521  0.0120 </r>
        <r>  0.0064  0.2149  0.0015 </r>
       </set>
       <set comment="band 4">
        <r>  0.0000  0.2740  0.0232 </r>
        <r>  0.0000  0.2904  0.0022 </r>
       </set>
       <set comment="band 5">
        <r>  0.1488  0.1430  0.0426 </r>
        <r>  0.0517  0.1100  0.0202 </r>
       </set>
       <set comment="band 6">
        <r>  0.0679  0.1325  0.0468 </r>
        <r>  0.0170  0.1803  0.0320 </r>
       </set>
       <set comment="band 7">
        <r>  0.0000  0.3079  0.0799 </r>
        <r>  0.0000  0.1104  0.0527 </r>
       </set>
       <set comment="band 8">
        <r>  0.0213  0.2515  0.0848 </r>
        <r>  0.0424  0.1352  0.0217 </r>
       </set>
      </set>
      <set comment="kpoint 17">
       <set comment="band 1">
        <r>  0.1272  0.0493  0.0085 </r>
        <r>  0.4854  0.0032  0.0002 </r>
       </set>
       <set comment="band 2">
        <r>  0.4681  0.0553  0.0086 </r>
        <r>  0.0808  0.1116  0.0030 </r>
       </set>
       <set comment="band 3">
        <r>  0.0184  0.2535  0.0141 </r>
        <r>  0.0031  0.2212  0.0021 </r>
       </set>
       <set comment="band 4">
        <r>  0.0000  0.2553  0.0338 </r>
        <r>  0.0000  0.3112  0.0028 </r>
       </set>
       <set comment="band 5">
        <r>  0.1811  0.1535  0.0283 </r>
        <r>  0.0662  0.1370  0.0154 </r>
       </set>
       <set comment="band 6">
        <r>  0.0656  0.1377  0.0349 </r>
        <r>  0.0024  0.1603  0.0461 </r>
       </set>
       <set comment="band 7">
        <r>  0.0000  0.3655  0.0575 </r>
        <r>  0.0000  0.0975  0.0472 </r>
       </set>
       <set comment="band 8">
        <r>  0.0009  0.2259  0.1075 </r>
        <r>  0.0558  0.1083  0.0190 </r>
       </set>
      </set>
      <set comment="kpoint 18">
       <set comment="band 1">
        <r>  0.0921  0.0634  0.0097 </r>
        <r>  0.5049  0.0034  0.0001 </r>
       </set>
       <set comment="band 2">
        <r>  0.5232  0.0246  0.0103 </r>
        <r>  0.0699  0.1082  0.0030 </r>
       </set>
       <set comment="band 3">
        <r>  0.0000  0.2881  0.0129 </r>
        <r>  0.0000  0.2675  0.0013 </r>
       </set>
       <set comment="band 4">
        <r>  0.0000  0.2881  0.0129 </r>
        <r>  0.0000  0.2675  0.0013 </r>
       </set>
       <set comment="band 5">
        <r>  0.1316  0.1088  0.0560 </r>
        <r>  0.0143  0.0803  0.0265 </r>
       </set>
       <set comment="band 6">
        <r>  0.0673  0.1648  0.0578 </r>
        <r>  0.0548  0.0680  0.0222 </r>
       </set>
       <set comment="band 7">
        <r>  0.0000  0.3439  0.0795 </r>
        <r>  0.0000  0.1737  0.0530 </r>
       </set>
       <set comment="band 8">
        <r>  0.0000  0.3439  0.0795 </r>
        <r>  0.0000  0.1737  0.0530 </r>
       </set>
      </set>
      <set comment="kpoint 19">
       <set comment="band 1">
        <r>  0.0294  0.0815  0.0135 </r>
        <r>  0.5523  0.0013  0.0001 </r>
       </set>
       <set comment="band 2">
        <r>  0.5946  0.0088  0.0043 </r>
        <r>  0.0217  0.1072  0.0031 </r>
       </set>
       <set comment="band 3">
        <r>  0.0038  0.2795  0.0097 </r>
        <r>  0.0005  0.2400  0.0013 </r>
       </set>
       <set comment="band 4">
        <r>  0.0000  0.2919  0.0107 </r>
        <r>  0.0000  0.2662  0.0010 </r>
       </set>
       <set comment="band 5">
        <r>  0.1165  0.1111  0.0598 </r>
        <r>  0.0265  0.0813  0.0255 </r>
       </set>
       <set comment="band 6">
        <r>  0.0725  0.1540  0.0617 </r>
        <r>  0.0372  0.0904  0.0249 </r>
       </set>
       <set comment="band 7">
        <r>  0.0302  0.2507  0.0654 </r>
        <r>  0.0241  0.1580  0.0398 </r>
       </set>
       <set comment="band 8">
        <r>  0.0000  0.3141  0.0832 </r>
        <r>  0.0000  0.1662  0.0539 </r>
       </set>
      </set>
      <set comment="kpoint 20">
       <set comment="band 1">
        <r>  0.0152  0.0836  0.0149 </r>
        <r>  0.5663  0.0003  0.0001 </r>
       </set>
       <set comment="band 2">
        <r>  0.6186  0.0079  0.0015 </r>
        <r>  0.0076  0.1060  0.0035 </r>
       </set>
       <set comment="band 3">
        <r>  0.0000  0.2685  0.0087 </r>
        <r>  0.0001  0.2187  0.0010 </r>
       </set>
       <set comment="band 4">
        <r>  0.0000  0.2873  0.0144 </r>
        <r>  0.0000  0.2735  0.0014 </r>
       </set>
       <set comment="band 5">
        <r>  0.1155  0.1293  0.0561 </r>
        <r>  0.0369  0.0794  0.0244 </r>
       </set>
       <set comment="band 6">
        <r>  0.0829  0.1210  0.0582 </r>
        <r>  0.0197  0.1709  0.0277 </r>
       </set>
       <set comment="band 7">
        <r>  0.0236  0.3250  0.0459 </r>
        <r>  0.0404  0.1017  0.0274 </r>
       </set>
       <set comment="band 8">
        <r>  0.0000  0.3067  0.0747 </r>
        <r>  0.0000  0.1482  0.0529 </r>
       </set>
      </set>
      <set comment="kpoint 21">
       <set comment="band 1">
        <r>  0.0000  0.0907  0.0148 </r>
        <r>  0.5729  0.0000  0.0001 </r>
       </set>
       <set comment="band 2">
        <r>  0.6207  0.0000  0.0028 </r>
        <r>  0.0000  0.1086  0.0030 </r>
       </set>
       <set comment="band 3">
        <r>  0.0000  0.2957  0.0079 </r>
        <r>  0.0000  0.2621  0.0007 </r>
       </set>
       <set comment="band 4">
        <r>  0.0000  0.2957  0.0079 </r>
        <r>  0.0000  0.2621  0.0007 </r>
       </set>
       <set comment="band 5">
        <r>  0.1934  0.0000  0.0657 </r>
        <r>  0.0000  0.1280  0.0265 </r>
       </set>
       <set comment="band 6">
        <r>  0.0000  0.2460  0.0595 </r>
        <r>  0.0653  0.0000  0.0241 </r>
       </set>
       <set comment="band 7">
        <r>  0.0000  0.3792  0.0576 </r>
        <r>  0.0000  0.2161  0.0325 </r>
       </set>
       <set comment="band 8">
        <r>  0.0000  0.3792  0.0576 </r>
        <r>  0.0000  0.2161  0.0325 </r>
       </set>
      </set>
      <set comment="kpoint 22">
       <set comment="band 1">
        <r>  0.1740  0.0339  0.0051 </r>
        <r>  0.4506  0.0034  0.0001 </r>
       </set>
       <set comment="band 2">
        <r>  0.4118  0.0635  0.0164 </r>
        <r>  0.1190  0.1171  0.0029 </r>
       </set>
       <set comment="band 3">
        <r>  0.0159  0.2545  0.0216 </r>
        <r>  0.0021  0.2480  0.0031 </r>
       </set>
       <set comment="band 4">
        <r>  0.0081  0.2463  0.0346 </r>
        <r>  0.0036  0.2979  0.0032 </r>
       </set>
       <set comment="band 5">
        <r>  0.2252  0.0370  0.0404 </r>
        <r>  0.0417  0.2426  0.0103 </r>
       </set>
       <set comment="band 6">
        <r>  0.0002  0.3915  0.0283 </r>
        <r>  0.0658  0.0205  0.0300 </r>
       </set>
       <set comment="band 7">
        <r>  0.0020  0.1919  0.0879 </r>
        <r>  0.0002  0.0874  0.0495 </r>
       </set>
       <set comment="band 8">
        <r>  0.0049  0.3518  0.0734 </r>
        <r>  0.0088  0.1237  0.0474 </r>
       </set>
      </set>
      <set comment="kpoint 23">
       <set comment="band 1">
        <r>  0.1144  0.0536  0.0092 </r>
        <r>  0.4946  0.0029  0.0002 </r>
       </set>
       <set comment="band 2">
        <r>  0.4755  0.0539  0.0071 </r>
        <r>  0.0692  0.1121  0.0028 </r>
       </set>
       <set comment="band 3">
        <r>  0.0298  0.2488  0.0158 </r>
        <r>  0.0083  0.2257  0.0023 </r>
       </set>
       <set comment="band 4">
        <r>  0.0042  0.2640  0.0260 </r>
        <r>  0.0015  0.2830  0.0028 </r>
       </set>
       <set comment="band 5">
        <r>  0.1882  0.1102  0.0347 </r>
        <r>  0.0553  0.1894  0.0139 </r>
       </set>
       <set comment="band 6">
        <r>  0.0160  0.2832  0.0581 </r>
        <r>  0.0327  0.0649  0.0346 </r>
       </set>
       <set comment="band 7">
        <r>  0.0169  0.1721  0.0771 </r>
        <r>  0.0054  0.1111  0.0437 </r>
       </set>
       <set comment="band 8">
        <r>  0.0045  0.2932  0.1030 </r>
        <r>  0.0156  0.1072  0.0498 </r>
       </set>
      </set>
      <set comment="kpoint 24">
       <set comment="band 1">
        <r>  0.0737  0.0649  0.0121 </r>
        <r>  0.5273  0.0014  0.0002 </r>
       </set>
       <set comment="band 2">
        <r>  0.5148  0.0478  0.0018 </r>
        <r>  0.0329  0.1118  0.0027 </r>
       </set>
       <set comment="band 3">
        <r>  0.0393  0.2423  0.0151 </r>
        <r>  0.0127  0.2186  0.0021 </r>
       </set>
       <set comment="band 4">
        <r>  0.0010  0.2721  0.0223 </r>
        <r>  0.0001  0.2778  0.0025 </r>
       </set>
       <set comment="band 5">
        <r>  0.1813  0.1253  0.0346 </r>
        <r>  0.0594  0.1742  0.0148 </r>
       </set>
       <set comment="band 6">
        <r>  0.0053  0.2192  0.0770 </r>
        <r>  0.0164  0.0602  0.0400 </r>
       </set>
       <set comment="band 7">
        <r>  0.0286  0.2237  0.0606 </r>
        <r>  0.0000  0.1649  0.0461 </r>
       </set>
       <set comment="band 8">
        <r>  0.0128  0.3071  0.0888 </r>
        <r>  0.0320  0.1118  0.0284 </r>
       </set>
      </set>
      <set comment="kpoint 25">
       <set comment="band 1">
        <r>  0.0808  0.0656  0.0108 </r>
        <r>  0.5155  0.0029  0.0001 </r>
       </set>
       <set comment="band 2">
        <r>  0.5382  0.0263  0.0075 </r>
        <r>  0.0585  0.1074  0.0032 </r>
       </set>
       <set comment="band 3">
        <r>  0.0104  0.2683  0.0128 </r>
        <r>  0.0017  0.2380  0.0016 </r>
       </set>
       <set comment="band 4">
        <r>  0.0015  0.2796  0.0155 </r>
        <r>  0.0004  0.2580  0.0021 </r>
       </set>
       <set comment="band 5">
        <r>  0.1514  0.0724  0.0588 </r>
        <r>  0.0025  0.1592  0.0263 </r>
       </set>
       <set comment="band 6">
        <r>  0.0450  0.2255  0.0508 </r>
        <r>  0.0670  0.0716  0.0209 </r>
       </set>
       <set comment="band 7">
        <r>  0.0139  0.2250  0.0869 </r>
        <r>  0.0209  0.0961  0.0465 </r>
       </set>
       <set comment="band 8">
        <r>  0.0057  0.3621  0.0705 </r>
        <r>  0.0051  0.1645  0.0485 </r>
       </set>
      </set>
      <set comment="kpoint 26">
       <set comment="band 1">
        <r>  0.0270  0.0801  0.0144 </r>
        <r>  0.5577  0.0008  0.0001 </r>
       </set>
       <set comment="band 2">
        <r>  0.6055  0.0125  0.0020 </r>
        <r>  0.0163  0.1058  0.0035 </r>
       </set>
       <set comment="band 3">
        <r>  0.0064  0.2623  0.0109 </r>
        <r>  0.0018  0.2221  0.0011 </r>
       </set>
       <set comment="band 4">
        <r>  0.0015  0.2813  0.0136 </r>
        <r>  0.0003  0.2513  0.0020 </r>
       </set>
       <set comment="band 5">
        <r>  0.1285  0.1171  0.0537 </r>
        <r>  0.0301  0.1396  0.0234 </r>
       </set>
       <set comment="band 6">
        <r>  0.0780  0.1430  0.0563 </r>
        <r>  0.0284  0.1665  0.0252 </r>
       </set>
       <set comment="band 7">
        <r>  0.0012  0.2419  0.0900 </r>
        <r>  0.0263  0.0696  0.0432 </r>
       </set>
       <set comment="band 8">
        <r>  0.0172  0.3001  0.0653 </r>
        <r>  0.0163  0.1026  0.0464 </r>
       </set>
      </set>
      <set comment="kpoint 27">
       <set comment="band 1">
        <r>  0.0502  0.0729  0.0132 </r>
        <r>  0.5417  0.0015  0.0001 </r>
       </set>
       <set comment="band 2">
        <r>  0.5780  0.0223  0.0029 </r>
        <r>  0.0310  0.1059  0.0035 </r>
       </set>
       <set comment="band 3">
        <r>  0.0064  0.2603  0.0106 </r>
        <r>  0.0016  0.2176  0.0011 </r>
       </set>
       <set comment="band 4">
        <r>  0.0033  0.2746  0.0182 </r>
        <r>  0.0009  0.2611  0.0024 </r>
       </set>
       <set comment="band 5">
        <r>  0.1563  0.1164  0.0444 </r>
        <r>  0.0386  0.1681  0.0196 </r>
       </set>
       <set comment="band 6">
        <r>  0.0218  0.3080  0.0568 </r>
        <r>  0.0417  0.0755  0.0352 </r>
       </set>
       <set comment="band 7">
        <r>  0.0438  0.0653  0.0780 </r>
        <r>  0.0030  0.1787  0.0346 </r>
       </set>
       <set comment="band 8">
        <r>  0.0084  0.3673  0.0735 </r>
        <r>  0.0265  0.0576  0.0419 </r>
       </set>
      </set>
      <set comment="kpoint 28">
       <set comment="band 1">
        <r>  0.0000  0.0892  0.0153 </r>
        <r>  0.5751  0.0000  0.0001 </r>
       </set>
       <set comment="band 2">
        <r>  0.6329  0.0001  0.0018 </r>
        <r>  0.0000  0.1066  0.0034 </r>
       </set>
       <set comment="band 3">
        <r>  0.0044  0.2604  0.0147 </r>
        <r>  0.0000  0.2473  0.0005 </r>
       </set>
       <set comment="band 4">
        <r>  0.0000  0.3016  0.0047 </r>
        <r>  0.0006  0.2349  0.0020 </r>
       </set>
       <set comment="band 5">
        <r>  0.1825  0.0301  0.0558 </r>
        <r>  0.0000  0.1692  0.0272 </r>
       </set>
       <set comment="band 6">
        <r>  0.0000  0.2373  0.0685 </r>
        <r>  0.0593  0.0381  0.0240 </r>
       </set>
       <set comment="band 7">
        <r>  0.0000  0.2694  0.0932 </r>
        <r>  0.0339  0.1426  0.0282 </r>
       </set>
       <set comment="band 8">
        <r>  0.0433  0.2410  0.0478 </r>
        <r>  0.0000  0.1398  0.0613 </r>
       </set>
      </set>
      <set comment="kpoint 29">
       <set comment="band 1">
        <r>  0.0000  0.0876  0.0159 </r>
        <r>  0.5773  0.0000  0.0000 </r>
       </set>
       <set comment="band 2">
        <r>  0.6475  0.0000  0.0006 </r>
        <r>  0.0000  0.1042  0.0038 </r>
       </set>
       <set comment="band 3">
        <r>  0.0000  0.2385  0.0194 </r>
        <r>  0.0000  0.2394  0.0000 </r>
       </set>
       <set comment="band 4">
        <r>  0.0000  0.3067  0.0018 </r>
        <r>  0.0000  0.2171  0.0029 </r>
       </set>
       <set comment="band 5">
        <r>  0.2205  0.0000  0.0297 </r>
        <r>  0.0000  0.2880  0.0219 </r>
       </set>
       <set comment="band 6">
        <r>  0.0000  0.0320  0.1321 </r>
        <r>  0.0000  0.1749  0.0319 </r>
       </set>
       <set comment="band 7">
        <r>  0.0000  0.4418  0.0378 </r>
        <r>  0.1010  0.0000  0.0196 </r>
       </set>
       <set comment="band 8">
        <r>  0.0000  0.2708  0.0904 </r>
        <r>  0.0000  0.0006  0.0682 </r>
       </set>
      </set>
     </set>
    </set>
   </array>
  </projected>
 </calculation>
 <structure name="finalpos" >
  <crystal>
   <varray name="basis" >
    <v>       0.00000000       3.32411182       3.32411182 </v>
    <v>       3.32411182       0.00000000       3.32411182 </v>
    <v>       3.32411182       3.32411182       0.00000000 </v>
   </varray>
   <i name="volume">     73.46100600 </i>
   <varray name="rec_basis" >
    <v>      -0.15041612       0.15041612       0.15041612 </v>
    <v>       0.15041612      -0.15041612       0.15041612 </v>
    <v>       0.15041612       0.15041612      -0.15041612 </v>
   </varray>
  </crystal>
  <varray name="positions" >
   <v>       0.00000000       0.00000000       0.00000000 </v>
   <v>       0.25000000       0.25000000       0.25000000 </v>
  </varray>
 </structure>
</modeling>
