InSb                                    
           1
     0.000000    3.324112    3.324112
     3.324112    0.000000    3.324112
     3.324112    3.324112    0.000000
   In   Sb
   1   1
Direct configuration=     1
   0.00000000  0.00000000  0.00000000
   0.25000000  0.25000000  0.25000000
