   2   2   1   0
  0.2118269E+02  0.3912990E-09  0.3912990E-09  0.3912990E-09  0.5000000E-15
  1.000000000000000E-004
  CAR 
 GaP                                     
     13.89703876    -10.29715239   11      3.00965274      1.00000000
    -10.297  0.0000E+00  0.0000E+00
     -7.878  0.1958E-15  0.4636E-02
     -5.458  0.0000E+00  0.2000E-01
     -3.039  0.5443E-03  0.2763E-01
     -0.619  0.5407E-03  0.3985E-01
      1.800  0.5443E-03  0.7355E-01
      4.219  0.0000E+00  0.8000E-01
      6.639  0.5678E-12  0.1021E+00
      9.058  0.8164E-03  0.1355E+00
     11.478  0.0000E+00  0.1584E+00
     13.897  0.0000E+00  0.1600E+00
     13.89703876    -10.29715239   11      3.00965274      1.00000000
    -10.297  0.0000E+00  0.0000E+00  0.0000E+00
     -7.878  0.3686E-14  0.8954E-15  0.1396E-15
     -5.458  0.0000E+00  0.0000E+00  0.0000E+00
     -3.039  0.1992E-01  0.4666E-02  0.2131E-03
     -0.619  0.1163E-02  0.1288E-01  0.6954E-03
      1.800  0.5021E-15  0.1274E-01  0.1965E-02
      4.219  0.0000E+00  0.0000E+00  0.0000E+00
      6.639  0.1840E-11  0.2087E-10  0.4736E-12
      9.058  0.2518E-02  0.1640E-01  0.4353E-02
     11.478  0.0000E+00  0.0000E+00  0.0000E+00
     13.897  0.0000E+00  0.0000E+00  0.0000E+00
     13.89703876    -10.29715239   11      3.00965274      1.00000000
    -10.297  0.0000E+00  0.0000E+00  0.0000E+00
     -7.878  0.7749E-14  0.1347E-15  0.0000E+00
     -5.458  0.0000E+00  0.0000E+00  0.0000E+00
     -3.039  0.2440E-02  0.7947E-02  0.0000E+00
     -0.619  0.3576E-03  0.1260E-01  0.0000E+00
      1.800  0.2381E-15  0.1879E-01  0.0000E+00
      4.219  0.0000E+00  0.0000E+00  0.0000E+00
      6.639  0.5471E-11  0.2208E-11  0.0000E+00
      9.058  0.1276E-02  0.1345E-01  0.0000E+00
     11.478  0.0000E+00  0.0000E+00  0.0000E+00
     13.897  0.0000E+00  0.0000E+00  0.0000E+00
