    2    2  100    1
  0.2118269E+02  0.3912990E-09  0.3912990E-09  0.3912990E-09  0.5000000E-15
  1.000000000000000E-004
  CAR 
 GaP                                     
      8     35      8
 
  0.0000000E+00  0.0000000E+00  0.0000000E+00  0.1371742E-02
    1       -9.197416   1.000000
    2        2.932586   1.000000
    3        2.932586   1.000000
    4        2.932586   1.000000
    5        4.448631   0.000000
    6        6.873713   0.000000
    7        6.873713   0.000000
    8        6.873713   0.000000
 
  0.1111111E+00  0.2967056E-19 -0.1881497E-17  0.1097394E-01
    1       -9.056351   1.000000
    2        1.553943   1.000000
    3        2.760680   1.000000
    4        2.760680   1.000000
    5        5.142602   0.000000
    6        7.142830   0.000000
    7        7.142830   0.000000
    8        7.220870   0.000000
 
  0.2222222E+00 -0.2447441E-17 -0.1256211E-17  0.1097394E-01
    1       -8.649202   1.000000
    2       -0.379917   1.000000
    3        2.406118   1.000000
    4        2.406118   1.000000
    5        5.064203   0.000000
    6        7.615606   0.000000
    7        7.615606   0.000000
    8        8.658123   0.000000
 
  0.3333333E+00  0.8799293E-17  0.4844464E-17  0.1097394E-01
    1       -8.047536   1.000000
    2       -2.100353   1.000000
    3        2.088381   1.000000
    4        2.088381   1.000000
    5        4.735591   0.000000
    6        7.774995   0.000000
    7        7.774995   0.000000
    8       10.329274   0.000000
 
  0.4444444E+00 -0.4894883E-17 -0.2512422E-17  0.1097394E-01
    1       -7.490500   1.000000
    2       -3.239312   1.000000
    3        1.912192   1.000000
    4        1.912192   1.000000
    5        4.539866   0.000000
    6        7.712153   0.000000
    7        7.712153   0.000000
    8       11.099206   0.000000
 
  0.1111111E+00  0.1111111E+00 -0.6307195E-18  0.8230453E-02
    1       -9.008938   1.000000
    2        1.578746   1.000000
    3        2.439503   1.000000
    4        2.439504   1.000000
    5        5.633635   0.000000
    6        6.431425   0.000000
    7        7.597033   0.000000
    8        7.597033   0.000000
 
  0.2222222E+00  0.1111111E+00 -0.3078367E-17  0.3292181E-01
    1       -8.688604   1.000000
    2        0.100916   1.000000
    3        2.028289   1.000000
    4        2.092080   1.000000
    5        5.804557   0.000000
    6        6.680344   0.000000
    7        8.234404   0.000000
    8        8.419940   0.000000
 
  0.3333333E+00  0.1111111E+00 -0.4959864E-17  0.3292181E-01
    1       -8.142687   1.000000
    2       -1.585874   1.000000
    3        1.627906   1.000000
    4        1.729582   1.000000
    5        5.572045   0.000000
    6        7.273381   0.000000
    7        8.491315   0.000000
    8        9.105254   0.000000
 
  0.4444444E+00  0.1111111E+00 -0.1555164E-16  0.3292181E-01
    1       -7.532949   1.000000
    2       -2.910951   1.000000
    3        1.222422   1.000000
    4        1.625917   1.000000
    5        5.362871   0.000000
    6        7.423165   0.000000
    7        8.329113   0.000000
    8       10.351184   0.000000
 
 -0.4444444E+00  0.1111111E+00  0.2578512E-16  0.3292181E-01
    1       -7.301364   1.000000
    2       -3.324940   1.000000
    3        0.994205   1.000000
    4        1.732271   1.000000
    5        5.309666   0.000000
    6        7.515911   0.000000
    7        8.114099   0.000000
    8       11.218428   0.000000
 
 -0.3333333E+00  0.1111111E+00  0.9871892E-17  0.3292181E-01
    1       -7.726377   1.000000
    2       -2.530736   1.000000
    3        0.996592   1.000000
    4        2.020111   1.000000
    5        5.432277   0.000000
    6        7.747985   0.000000
    7        7.967102   0.000000
    8       10.302192   0.000000
 
 -0.2222222E+00  0.1111111E+00  0.1065112E-16  0.3292181E-01
    1       -8.346444   1.000000
    2       -1.048814   1.000000
    3        1.269732   1.000000
    4        2.411133   1.000000
    5        5.674036   0.000000
    6        7.702053   0.000000
    7        7.770485   0.000000
    8        8.985630   0.000000
 
 -0.1111111E+00  0.1111111E+00  0.5934111E-19  0.1646091E-01
    1       -8.825654   1.000000
    2        0.535684   1.000000
    3        1.905010   1.000000
    4        2.739387   1.000000
    5        5.675507   0.000000
    6        7.132481   0.000000
    7        7.254280   0.000000
    8        8.256064   0.000000
 
  0.2222222E+00  0.2222222E+00 -0.1261439E-17  0.8230453E-02
    1       -8.459115   1.000000
    2       -0.261819   1.000000
    3        1.566896   1.000000
    4        1.566896   1.000000
    5        5.365335   0.000000
    6        6.695498   0.000000
    7        9.152457   0.000000
    8        9.152457   0.000000
 
  0.3333333E+00  0.2222222E+00 -0.1090625E-16  0.3292181E-01
    1       -7.992113   1.000000
    2       -1.411555   1.000000
    3        1.004553   1.000000
    4        1.236108   1.000000
    5        5.417024   0.000000
    6        6.686311   0.000000
    7        9.210575   0.000000
    8        9.749017   0.000000
 
  0.4444444E+00  0.2222222E+00 -0.8663516E-17  0.3292181E-01
    1       -7.400005   1.000000
    2       -2.590475   1.000000
    3        0.318730   1.000000
    4        1.125137   1.000000
    5        5.522273   0.000000
    6        7.513350   0.000000
    7        9.087006   0.000000
    8        9.687754   0.000000
 
 -0.4444444E+00  0.2222222E+00 -0.1751646E-16  0.3292181E-01
    1       -7.015247   1.000000
    2       -3.222165   1.000000
    3       -0.167811   1.000000
    4        1.253723   1.000000
    5        5.612703   0.000000
    6        8.091124   0.000000
    7        9.350500   0.000000
    8       10.055745   0.000000
 
 -0.3333333E+00  0.2222222E+00  0.3754473E-18  0.3292181E-01
    1       -7.249711   1.000000
    2       -2.840701   1.000000
    3       -0.301763   1.000000
    4        1.592284   1.000000
    5        5.874389   0.000000
    6        8.249575   0.000000
    7        8.961971   0.000000
    8       10.128906   0.000000
 
 -0.2222222E+00  0.2222222E+00 -0.4894883E-17  0.1646091E-01
    1       -7.828352   1.000000
    2       -1.880368   1.000000
    3        0.113539   1.000000
    4        2.046771   1.000000
    5        6.126691   0.000000
    6        8.311329   0.000000
    7        8.362912   0.000000
    8        8.804567   0.000000
 
  0.3333333E+00  0.3333333E+00 -0.1892159E-17  0.8230453E-02
    1       -7.616070   1.000000
    2       -2.006278   1.000000
    3        0.854838   1.000000
    4        0.854838   1.000000
    5        4.779233   0.000000
    6        5.875661   0.000000
    7       10.987244   0.000000
    8       10.987244   0.000000
 
  0.4444444E+00  0.3333333E+00  0.6052840E-17  0.3292181E-01
    1       -7.104506   1.000000
    2       -2.810734   1.000000
    3        0.249807   1.000000
    4        0.694952   1.000000
    5        4.972322   0.000000
    6        5.905215   0.000000
    7       10.912095   0.000000
    8       11.394767   0.000000
 
 -0.4444444E+00  0.3333333E+00 -0.2199934E-16  0.3292181E-01
    1       -6.711968   1.000000
    2       -3.296844   1.000000
    3       -0.536319   1.000000
    4        0.788165   1.000000
    5        5.151658   0.000000
    6        7.274661   0.000000
    7       10.664607   0.000000
    8       11.015802   0.000000
 
 -0.3333333E+00  0.3333333E+00 -0.2122011E-16  0.1646091E-01
    1       -6.796513   1.000000
    2       -3.181244   1.000000
    3       -0.863272   1.000000
    4        1.115049   1.000000
    5        5.482810   0.000000
    6        8.751132   0.000000
    7       10.189864   0.000000
    8       10.564213   0.000000
 
  0.4444444E+00  0.4444444E+00 -0.2522878E-17  0.8230453E-02
    1       -6.746205   1.000000
    2       -3.341871   1.000000
    3        0.472935   1.000000
    4        0.472935   1.000000
    5        4.625902   0.000000
    6        5.019704   0.000000
    7       12.797303   0.000000
    8       12.797303   0.000000
 
 -0.4444444E+00  0.4444444E+00 -0.9789765E-17  0.1646091E-01
    1       -6.564075   1.000000
    2       -3.531440   1.000000
    3       -0.009598   1.000000
    4        0.506202   1.000000
    5        4.837823   0.000000
    6        5.543658   0.000000
    7       12.365039   0.000000
    8       12.546905   0.000000
 
  0.3333333E+00  0.2222222E+00  0.1111111E+00  0.3292181E-01
    1       -8.294306   1.000000
    2       -0.879877   1.000000
    3        1.005544   1.000000
    4        1.963505   1.000000
    5        6.125048   0.000000
    6        6.815977   0.000000
    7        8.491076   0.000000
    8        8.947682   0.000000
 
  0.4444444E+00  0.2222222E+00  0.1111111E+00  0.6584362E-01
    1       -7.715700   1.000000
    2       -2.138927   1.000000
    3        0.393003   1.000000
    4        1.596949   1.000000
    5        6.202120   0.000000
    6        7.326009   0.000000
    7        8.481483   0.000000
    8        9.519308   0.000000
 
 -0.4444444E+00  0.2222222E+00  0.1111111E+00  0.6584362E-01
    1       -7.186624   1.000000
    2       -3.103550   1.000000
    3        0.159740   1.000000
    4        1.319516   1.000000
    5        6.119721   0.000000
    6        7.299625   0.000000
    7        9.031144   0.000000
    8       10.355819   0.000000
 
  0.4444444E+00  0.3333333E+00  0.1111111E+00  0.3292181E-01
    1       -7.493090   1.000000
    2       -2.239408   1.000000
    3        0.322687   1.000000
    4        0.923809   1.000000
    5        5.704942   0.000000
    6        6.522159   0.000000
    7        9.130586   0.000000
    8       10.936449   0.000000
 
 -0.4444444E+00  0.3333333E+00  0.1111111E+00  0.6584362E-01
    1       -6.964926   1.000000
    2       -3.000509   1.000000
    3       -0.285272   1.000000
    4        0.663605   1.000000
    5        6.033257   0.000000
    6        7.441737   0.000000
    7        8.825278   0.000000
    8       11.199227   0.000000
 
 -0.3333333E+00  0.3333333E+00  0.1111111E+00  0.6584362E-01
    1       -6.795489   1.000000
    2       -3.214530   1.000000
    3       -0.636973   1.000000
    4        0.760810   1.000000
    5        6.253465   0.000000
    6        8.083454   0.000000
    7        9.245749   0.000000
    8       10.738042   0.000000
 
 -0.2222222E+00  0.3333333E+00  0.1111111E+00  0.3292181E-01
    1       -7.171357   1.000000
    2       -2.743070   1.000000
    3       -0.478226   1.000000
    4        1.144622   1.000000
    5        6.556838   0.000000
    6        7.994275   0.000000
    7        8.231636   0.000000
    8       10.790802   0.000000
 
 -0.4444444E+00  0.4444444E+00  0.1111111E+00  0.3292181E-01
    1       -6.699218   1.000000
    2       -3.310580   1.000000
    3        0.033503   1.000000
    4        0.239176   1.000000
    5        5.526452   0.000000
    6        5.836002   0.000000
    7       10.760695   0.000000
    8       12.252890   0.000000
 
 -0.3333333E+00  0.4444444E+00  0.1111111E+00  0.3292181E-01
    1       -6.559963   1.000000
    2       -3.399909   1.000000
    3       -0.571870   1.000000
    4        0.319078   1.000000
    5        5.864017   0.000000
    6        7.290307   0.000000
    7       10.302913   0.000000
    8       10.546078   0.000000
 
 -0.3333333E+00  0.4444444E+00  0.2222222E+00  0.3292181E-01
    1       -6.607596   1.000000
    2       -3.294839   1.000000
    3       -0.547134   1.000000
    4        0.065923   1.000000
    5        7.249595   0.000000
    6        7.607091   0.000000
    7        8.550376   0.000000
    8       10.183576   0.000000
