Thu Aug 23 16:58:45 -03 2018
----------------
PBS job running on: halfbeast
in directory:       /home/users/fbonani/TCC/wurtzite/GaP/minimizacao
cpus: 5
gpus: 
nodefile:
halfbeast.fiscomp
halfbeast.fiscomp
halfbeast.fiscomp
halfbeast.fiscomp
halfbeast.fiscomp
----------------
 running on   10 total cores
 distrk:  each k-point on   10 cores,    1 groups
 distr:  one band on    5 cores,    2 groups
 using from now: INCAR     
 vasp.5.4.4.18Apr17-6-g9f103f2a35 (build Apr 10 2018 17:34:00) complex          
  
 POSCAR found type information on POSCAR  Ga P 
 POSCAR found :  2 types and       4 ions
 scaLAPACK will be used
 LDA part: xc-table for Pade appr. of Perdew
 generate k-points for:    9    9    5
 POSCAR, INCAR and KPOINTS ok, starting setup
 FFT: planning ...
 WAVECAR not read
 entering main loop
       N       E                     dE             d eps       ncg     rms          rms(c)
DAV:   1     0.527135594329E+02    0.52714E+02   -0.60815E+03   864   0.107E+03
DAV:   2    -0.150336224875E+02   -0.67747E+02   -0.63544E+02  1224   0.155E+02
DAV:   3    -0.186613289631E+02   -0.36277E+01   -0.35930E+01  1132   0.391E+01
DAV:   4    -0.187194952881E+02   -0.58166E-01   -0.58050E-01  1064   0.569E+00
DAV:   5    -0.187209484930E+02   -0.14532E-02   -0.14529E-02  1180   0.846E-01
DAV:   6    -0.187209860168E+02   -0.37524E-04   -0.37522E-04  1084   0.143E-01
DAV:   7    -0.187209873514E+02   -0.13346E-05   -0.13346E-05  1172   0.249E-02
DAV:   8    -0.187209874070E+02   -0.55616E-07   -0.55654E-07   976   0.490E-03    0.681E+00
DAV:   9    -0.183902666358E+02    0.33072E+00   -0.28366E-01   948   0.277E+00    0.544E+00
DAV:  10    -0.182007877657E+02    0.18948E+00   -0.95039E-01  1008   0.508E+00    0.248E+00
DAV:  11    -0.181785607920E+02    0.22227E-01   -0.11081E-01   924   0.204E+00    0.285E-01
DAV:  12    -0.181786707146E+02   -0.10992E-03   -0.38556E-03  1080   0.471E-01    0.164E-01
DAV:  13    -0.181786463807E+02    0.24334E-04   -0.39627E-04  1028   0.119E-01    0.109E-01
DAV:  14    -0.181786549578E+02   -0.85771E-05   -0.20346E-04  1052   0.856E-02    0.264E-02
DAV:  15    -0.181786561484E+02   -0.11905E-05   -0.24928E-05  1112   0.289E-02    0.278E-02
DAV:  16    -0.181786556556E+02    0.49280E-06   -0.23798E-06  1084   0.105E-02    0.192E-02
DAV:  17    -0.181786550807E+02    0.57488E-06   -0.14134E-06  1104   0.634E-03    0.106E-02
DAV:  18    -0.181786550069E+02    0.73822E-07   -0.10461E-06  1104   0.547E-03    0.186E-03
DAV:  19    -0.181786550240E+02   -0.17195E-07   -0.13118E-07   636   0.215E-03
   1 F= -.18178655E+02 E0= -.18178655E+02  d E =-.181787E+02
 curvature:   0.00 expect dE= 0.000E+00 dE for cont linesearch  0.000E+00
 trial: gam= 0.00000 g(F)=  0.311E-07 g(S)=  0.138E-06 ort = 0.000E+00 (trialstep = 0.100E+01)
 search vector abs. value=  0.169E-06
 reached required accuracy - stopping structural energy minimisation
Thu Aug 23 16:58:53 -03 2018
