       N       E                     dE             d eps       ncg     rms          rms(c)
DAV:   1     0.161447696905E+02    0.16145E+02   -0.36899E+03   560   0.849E+02
DAV:   2    -0.881976208484E+01   -0.24965E+02   -0.23731E+02   816   0.965E+01
DAV:   3    -0.937178944490E+01   -0.55203E+00   -0.55203E+00   752   0.187E+01
DAV:   4    -0.937369334097E+01   -0.19039E-02   -0.19039E-02   880   0.119E+00
DAV:   5    -0.937369511234E+01   -0.17714E-05   -0.17714E-05   704   0.341E-02
DAV:   6    -0.937369512375E+01   -0.11411E-07   -0.11411E-07   912   0.205E-03
DAV:   7    -0.937369512384E+01   -0.89869E-10   -0.89841E-10   728   0.741E-05
DAV:   8    -0.937369512384E+01   -0.56843E-13   -0.80025E-13   728   0.338E-06    0.481E+00
DAV:   9    -0.921046102394E+01    0.16323E+00   -0.20840E-01   600   0.208E+00    0.385E+00
DAV:  10    -0.911538127497E+01    0.95080E-01   -0.53458E-01   656   0.342E+00    0.195E+00
DAV:  11    -0.910666917354E+01    0.87121E-02   -0.42804E-02   624   0.125E+00    0.199E-01
DAV:  12    -0.910672028644E+01   -0.51113E-04   -0.12964E-03   728   0.282E-01    0.107E-01
DAV:  13    -0.910673256828E+01   -0.12282E-04   -0.15504E-04   744   0.686E-02    0.684E-02
DAV:  14    -0.910674948368E+01   -0.16915E-04   -0.10533E-04   680   0.555E-02    0.214E-02
DAV:  15    -0.910675096539E+01   -0.14817E-05   -0.35880E-06   720   0.150E-02    0.154E-02
DAV:  16    -0.910675072130E+01    0.24408E-06   -0.21875E-06   728   0.878E-03    0.272E-03
DAV:  17    -0.910675067574E+01    0.45568E-07   -0.14414E-07   432   0.212E-03
   1 F= -.91067507E+01 E0= -.91067507E+01  d E =-.910675E+01
