PROCAR new format
# of k-points:   35         # of bands:    8         # of ions:    2

 k-point     1 :    0.00000000 0.00000000 0.00000000     weight = 0.00137174

band     1 # energy   -9.19741643 # occ.  2.00000000
 
ion      s      p      d    tot
    1  0.278  0.000  0.000  0.278
    2  0.344  0.000  0.000  0.344
tot    0.622  0.000  0.000  0.622
 
band     2 # energy    2.93258567 # occ.  2.00000000
 
ion      s      p      d    tot
    1  0.000  0.122  0.084  0.206
    2  0.000  0.427  0.000  0.427
tot    0.000  0.549  0.084  0.633
 
band     3 # energy    2.93258569 # occ.  2.00000000
 
ion      s      p      d    tot
    1  0.000  0.122  0.084  0.206
    2  0.000  0.427  0.000  0.427
tot    0.000  0.549  0.084  0.633
 
band     4 # energy    2.93258593 # occ.  2.00000000
 
ion      s      p      d    tot
    1  0.000  0.122  0.084  0.206
    2  0.000  0.427  0.000  0.427
tot    0.000  0.549  0.084  0.633
 
band     5 # energy    4.44863069 # occ.  0.00000000
 
ion      s      p      d    tot
    1  0.399  0.000  0.000  0.399
    2  0.361  0.000  0.000  0.361
tot    0.760  0.000  0.000  0.760
 
band     6 # energy    6.87371313 # occ.  0.00000000
 
ion      s      p      d    tot
    1  0.000  0.480  0.008  0.489
    2  0.000  0.032  0.000  0.032
tot    0.000  0.513  0.008  0.521
 
band     7 # energy    6.87371318 # occ.  0.00000000
 
ion      s      p      d    tot
    1  0.000  0.480  0.008  0.489
    2  0.000  0.032  0.000  0.032
tot    0.000  0.513  0.008  0.521
 
band     8 # energy    6.87371319 # occ.  0.00000000
 
ion      s      p      d    tot
    1  0.000  0.480  0.008  0.489
    2  0.000  0.032  0.000  0.032
tot    0.000  0.513  0.008  0.521
 

 k-point     2 :    0.11111111 0.00000000-0.00000000     weight = 0.01097394

band     1 # energy   -9.05635144 # occ.  2.00000000
 
ion      s      p      d    tot
    1  0.270  0.005  0.001  0.275
    2  0.348  0.001  0.000  0.349
tot    0.618  0.006  0.001  0.624
 
band     2 # energy    1.55394334 # occ.  2.00000000
 
ion      s      p      d    tot
    1  0.123  0.122  0.052  0.296
    2  0.095  0.264  0.000  0.359
tot    0.218  0.385  0.052  0.655
 
band     3 # energy    2.76067978 # occ.  2.00000000
 
ion      s      p      d    tot
    1  0.000  0.146  0.075  0.221
    2  0.000  0.409  0.000  0.409
tot    0.000  0.555  0.075  0.630
 
band     4 # energy    2.76067998 # occ.  2.00000000
 
ion      s      p      d    tot
    1  0.000  0.146  0.075  0.221
    2  0.000  0.409  0.000  0.409
tot    0.000  0.555  0.075  0.630
 
band     5 # energy    5.14260191 # occ.  0.00000000
 
ion      s      p      d    tot
    1  0.291  0.068  0.009  0.369
    2  0.226  0.098  0.000  0.325
tot    0.518  0.167  0.009  0.693
 
band     6 # energy    7.14282963 # occ.  0.00000000
 
ion      s      p      d    tot
    1  0.000  0.459  0.016  0.474
    2  0.000  0.050  0.000  0.050
tot    0.000  0.508  0.016  0.524
 
band     7 # energy    7.14282967 # occ.  0.00000000
 
ion      s      p      d    tot
    1  0.000  0.459  0.016  0.474
    2  0.000  0.050  0.000  0.050
tot    0.000  0.508  0.016  0.524
 
band     8 # energy    7.22087006 # occ.  0.00000000
 
ion      s      p      d    tot
    1  0.029  0.335  0.028  0.392
    2  0.036  0.096  0.000  0.133
tot    0.065  0.432  0.028  0.525
 

 k-point     3 :    0.22222222-0.00000000-0.00000000     weight = 0.01097394

band     1 # energy   -8.64920240 # occ.  2.00000000
 
ion      s      p      d    tot
    1  0.247  0.018  0.002  0.267
    2  0.359  0.004  0.000  0.363
tot    0.606  0.022  0.002  0.630
 
band     2 # energy   -0.37991667 # occ.  2.00000000
 
ion      s      p      d    tot
    1  0.183  0.131  0.030  0.344
    2  0.105  0.195  0.000  0.300
tot    0.288  0.326  0.030  0.644
 
band     3 # energy    2.40611778 # occ.  2.00000000
 
ion      s      p      d    tot
    1  0.000  0.186  0.058  0.244
    2  0.000  0.383  0.000  0.383
tot    0.000  0.569  0.058  0.627
 
band     4 # energy    2.40611797 # occ.  2.00000000
 
ion      s      p      d    tot
    1  0.000  0.186  0.058  0.244
    2  0.000  0.383  0.000  0.383
tot    0.000  0.569  0.058  0.627
 
band     5 # energy    5.06420277 # occ.  0.00000000
 
ion      s      p      d    tot
    1  0.266  0.115  0.013  0.394
    2  0.157  0.060  0.000  0.217
tot    0.423  0.174  0.013  0.611
 
band     6 # energy    7.61560614 # occ.  0.00000000
 
ion      s      p      d    tot
    1  0.000  0.407  0.034  0.441
    2  0.000  0.069  0.000  0.069
tot    0.000  0.476  0.034  0.510
 
band     7 # energy    7.61560617 # occ.  0.00000000
 
ion      s      p      d    tot
    1  0.000  0.407  0.034  0.441
    2  0.000  0.069  0.000  0.069
tot    0.000  0.476  0.034  0.510
 
band     8 # energy    8.65812261 # occ.  0.00000000
 
ion      s      p      d    tot
    1  0.063  0.169  0.035  0.267
    2  0.074  0.209  0.000  0.283
tot    0.137  0.379  0.035  0.550
 

 k-point     4 :    0.33333333 0.00000000 0.00000000     weight = 0.01097394

band     1 # energy   -8.04753605 # occ.  2.00000000
 
ion      s      p      d    tot
    1  0.206  0.037  0.006  0.249
    2  0.386  0.006  0.000  0.392
tot    0.593  0.043  0.006  0.641
 
band     2 # energy   -2.10035279 # occ.  2.00000000
 
ion      s      p      d    tot
    1  0.239  0.126  0.014  0.379
    2  0.084  0.162  0.000  0.246
tot    0.322  0.288  0.014  0.625
 
band     3 # energy    2.08838123 # occ.  2.00000000
 
ion      s      p      d    tot
    1  0.000  0.215  0.045  0.260
    2  0.000  0.367  0.000  0.367
tot    0.000  0.582  0.045  0.627
 
band     4 # energy    2.08838142 # occ.  2.00000000
 
ion      s      p      d    tot
    1  0.000  0.215  0.045  0.260
    2  0.000  0.367  0.000  0.367
tot    0.000  0.582  0.045  0.627
 
band     5 # energy    4.73559108 # occ.  0.00000000
 
ion      s      p      d    tot
    1  0.282  0.085  0.023  0.390
    2  0.149  0.045  0.000  0.194
tot    0.431  0.130  0.023  0.584
 
band     6 # energy    7.77499534 # occ.  0.00000000
 
ion      s      p      d    tot
    1  0.000  0.332  0.060  0.392
    2  0.000  0.065  0.000  0.065
tot    0.000  0.396  0.060  0.457
 
band     7 # energy    7.77499537 # occ.  0.00000000
 
ion      s      p      d    tot
    1  0.000  0.332  0.060  0.392
    2  0.000  0.065  0.000  0.065
tot    0.000  0.396  0.060  0.457
 
band     8 # energy   10.32927370 # occ.  0.00000000
 
ion      s      p      d    tot
    1  0.032  0.122  0.038  0.192
    2  0.044  0.271  0.000  0.315
tot    0.076  0.393  0.038  0.507
 

 k-point     5 :    0.44444444-0.00000000-0.00000000     weight = 0.01097394

band     1 # energy   -7.49050032 # occ.  2.00000000
 
ion      s      p      d    tot
    1  0.157  0.054  0.011  0.222
    2  0.430  0.003  0.000  0.433
tot    0.587  0.057  0.011  0.655
 
band     2 # energy   -3.23931244 # occ.  2.00000000
 
ion      s      p      d    tot
    1  0.295  0.116  0.002  0.413
    2  0.042  0.151  0.000  0.193
tot    0.337  0.267  0.002  0.606
 
band     3 # energy    1.91219196 # occ.  2.00000000
 
ion      s      p      d    tot
    1  0.000  0.229  0.038  0.267
    2  0.000  0.360  0.000  0.360
tot    0.000  0.590  0.038  0.628
 
band     4 # energy    1.91219214 # occ.  2.00000000
 
ion      s      p      d    tot
    1  0.000  0.229  0.038  0.267
    2  0.000  0.360  0.000  0.360
tot    0.000  0.590  0.038  0.628
 
band     5 # energy    4.53986631 # occ.  0.00000000
 
ion      s      p      d    tot
    1  0.294  0.063  0.029  0.386
    2  0.150  0.040  0.000  0.190
tot    0.444  0.103  0.029  0.576
 
band     6 # energy    7.71215252 # occ.  0.00000000
 
ion      s      p      d    tot
    1  0.000  0.286  0.076  0.363
    2  0.000  0.056  0.000  0.056
tot    0.000  0.343  0.076  0.419
 
band     7 # energy    7.71215255 # occ.  0.00000000
 
ion      s      p      d    tot
    1  0.000  0.286  0.076  0.363
    2  0.000  0.056  0.000  0.056
tot    0.000  0.343  0.076  0.419
 
band     8 # energy   11.09920566 # occ.  0.00000000
 
ion      s      p      d    tot
    1  0.000  0.072  0.058  0.130
    2  0.003  0.189  0.000  0.192
tot    0.003  0.262  0.058  0.322
 

 k-point     6 :    0.11111111 0.11111111-0.00000000     weight = 0.00823045

band     1 # energy   -9.00893801 # occ.  2.00000000
 
ion      s      p      d    tot
    1  0.267  0.006  0.001  0.275
    2  0.349  0.001  0.000  0.350
tot    0.616  0.008  0.001  0.625
 
band     2 # energy    1.57874586 # occ.  2.00000000
 
ion      s      p      d    tot
    1  0.163  0.089  0.055  0.307
    2  0.126  0.250  0.000  0.375
tot    0.289  0.339  0.055  0.682
 
band     3 # energy    2.43950341 # occ.  2.00000000
 
ion      s      p      d    tot
    1  0.000  0.175  0.063  0.238
    2  0.000  0.378  0.000  0.378
tot    0.000  0.554  0.063  0.617
 
band     4 # energy    2.43950355 # occ.  2.00000000
 
ion      s      p      d    tot
    1  0.000  0.175  0.063  0.238
    2  0.000  0.378  0.000  0.378
tot    0.000  0.554  0.063  0.617
 
band     5 # energy    5.63363452 # occ.  0.00000000
 
ion      s      p      d    tot
    1  0.289  0.000  0.027  0.316
    2  0.167  0.206  0.000  0.373
tot    0.456  0.206  0.027  0.689
 
band     6 # energy    6.43142475 # occ.  0.00000000
 
ion      s      p      d    tot
    1  0.000  0.434  0.005  0.439
    2  0.061  0.001  0.000  0.061
tot    0.061  0.434  0.005  0.500
 
band     7 # energy    7.59703318 # occ.  0.00000000
 
ion      s      p      d    tot
    1  0.000  0.425  0.027  0.452
    2  0.000  0.082  0.000  0.082
tot    0.000  0.507  0.027  0.534
 
band     8 # energy    7.59703320 # occ.  0.00000000
 
ion      s      p      d    tot
    1  0.000  0.425  0.027  0.452
    2  0.000  0.082  0.000  0.082
tot    0.000  0.507  0.027  0.534
 

 k-point     7 :    0.22222222 0.11111111-0.00000000     weight = 0.03292181

band     1 # energy   -8.68860424 # occ.  2.00000000
 
ion      s      p      d    tot
    1  0.249  0.017  0.002  0.268
    2  0.358  0.004  0.000  0.361
tot    0.606  0.021  0.002  0.629
 
band     2 # energy    0.10091593 # occ.  2.00000000
 
ion      s      p      d    tot
    1  0.197  0.110  0.038  0.345
    2  0.123  0.201  0.000  0.324
tot    0.320  0.312  0.038  0.669
 
band     3 # energy    2.02828873 # occ.  2.00000000
 
ion      s      p      d    tot
    1  0.000  0.208  0.049  0.257
    2  0.000  0.353  0.000  0.353
tot    0.000  0.561  0.049  0.610
 
band     4 # energy    2.09208017 # occ.  2.00000000
 
ion      s      p      d    tot
    1  0.025  0.186  0.051  0.262
    2  0.013  0.340  0.000  0.353
tot    0.038  0.527  0.051  0.616
 
band     5 # energy    5.80455716 # occ.  0.00000000
 
ion      s      p      d    tot
    1  0.232  0.073  0.034  0.339
    2  0.073  0.175  0.000  0.248
tot    0.305  0.248  0.034  0.587
 
band     6 # energy    6.68034445 # occ.  0.00000000
 
ion      s      p      d    tot
    1  0.032  0.369  0.008  0.409
    2  0.096  0.039  0.000  0.135
tot    0.129  0.407  0.008  0.544
 
band     7 # energy    8.23440418 # occ.  0.00000000
 
ion      s      p      d    tot
    1  0.000  0.383  0.042  0.425
    2  0.000  0.106  0.000  0.106
tot    0.000  0.489  0.042  0.530
 
band     8 # energy    8.41994018 # occ.  0.00000000
 
ion      s      p      d    tot
    1  0.016  0.279  0.049  0.344
    2  0.020  0.137  0.000  0.157
tot    0.036  0.416  0.049  0.501
 

 k-point     8 :    0.33333333 0.11111111-0.00000000     weight = 0.03292181

band     1 # energy   -8.14268694 # occ.  2.00000000
 
ion      s      p      d    tot
    1  0.213  0.035  0.005  0.253
    2  0.380  0.006  0.000  0.386
tot    0.592  0.041  0.005  0.638
 
band     2 # energy   -1.58587410 # occ.  2.00000000
 
ion      s      p      d    tot
    1  0.242  0.117  0.020  0.379
    2  0.100  0.167  0.000  0.267
tot    0.342  0.284  0.020  0.646
 
band     3 # energy    1.62790585 # occ.  2.00000000
 
ion      s      p      d    tot
    1  0.045  0.197  0.040  0.282
    2  0.021  0.306  0.000  0.327
tot    0.066  0.503  0.040  0.609
 
band     4 # energy    1.72958208 # occ.  2.00000000
 
ion      s      p      d    tot
    1  0.000  0.230  0.038  0.268
    2  0.000  0.341  0.000  0.341
tot    0.000  0.572  0.038  0.610
 
band     5 # energy    5.57204484 # occ.  0.00000000
 
ion      s      p      d    tot
    1  0.217  0.088  0.037  0.341
    2  0.093  0.141  0.000  0.233
tot    0.310  0.228  0.037  0.575
 
band     6 # energy    7.27338098 # occ.  0.00000000
 
ion      s      p      d    tot
    1  0.027  0.336  0.032  0.396
    2  0.034  0.061  0.000  0.096
tot    0.062  0.397  0.032  0.491
 
band     7 # energy    8.49131478 # occ.  0.00000000
 
ion      s      p      d    tot
    1  0.000  0.323  0.063  0.386
    2  0.000  0.098  0.000  0.098
tot    0.000  0.421  0.063  0.485
 
band     8 # energy    9.10525392 # occ.  0.00000000
 
ion      s      p      d    tot
    1  0.021  0.132  0.084  0.236
    2  0.029  0.139  0.000  0.168
tot    0.050  0.271  0.084  0.404
 

 k-point     9 :    0.44444444 0.11111111-0.00000000     weight = 0.03292181

band     1 # energy   -7.53294852 # occ.  2.00000000
 
ion      s      p      d    tot
    1  0.161  0.054  0.010  0.226
    2  0.421  0.005  0.000  0.426
tot    0.583  0.059  0.010  0.652
 
band     2 # energy   -2.91095051 # occ.  2.00000000
 
ion      s      p      d    tot
    1  0.299  0.110  0.006  0.415
    2  0.058  0.151  0.000  0.209
tot    0.357  0.261  0.006  0.625
 
band     3 # energy    1.22242151 # occ.  2.00000000
 
ion      s      p      d    tot
    1  0.054  0.206  0.032  0.292
    2  0.024  0.287  0.000  0.311
tot    0.077  0.493  0.032  0.602
 
band     4 # energy    1.62591685 # occ.  2.00000000
 
ion      s      p      d    tot
    1  0.000  0.240  0.033  0.273
    2  0.000  0.341  0.000  0.341
tot    0.000  0.581  0.033  0.614
 
band     5 # energy    5.36287130 # occ.  0.00000000
 
ion      s      p      d    tot
    1  0.226  0.084  0.038  0.348
    2  0.104  0.122  0.000  0.225
tot    0.329  0.206  0.038  0.573
 
band     6 # energy    7.42316533 # occ.  0.00000000
 
ion      s      p      d    tot
    1  0.015  0.254  0.064  0.333
    2  0.012  0.063  0.000  0.075
tot    0.027  0.318  0.064  0.408
 
band     7 # energy    8.32911264 # occ.  0.00000000
 
ion      s      p      d    tot
    1  0.000  0.278  0.079  0.357
    2  0.000  0.080  0.000  0.080
tot    0.000  0.358  0.079  0.437
 
band     8 # energy   10.35118407 # occ.  0.00000000
 
ion      s      p      d    tot
    1  0.017  0.139  0.079  0.234
    2  0.019  0.180  0.000  0.199
tot    0.036  0.318  0.079  0.433
 

 k-point    10 :   -0.44444444 0.11111111 0.00000000     weight = 0.03292181

band     1 # energy   -7.30136427 # occ.  2.00000000
 
ion      s      p      d    tot
    1  0.136  0.061  0.013  0.210
    2  0.446  0.003  0.000  0.449
tot    0.582  0.064  0.013  0.659
 
band     2 # energy   -3.32493995 # occ.  2.00000000
 
ion      s      p      d    tot
    1  0.326  0.105  0.001  0.433
    2  0.033  0.149  0.000  0.183
tot    0.360  0.255  0.001  0.616
 
band     3 # energy    0.99420483 # occ.  2.00000000
 
ion      s      p      d    tot
    1  0.053  0.212  0.028  0.294
    2  0.023  0.279  0.000  0.302
tot    0.076  0.491  0.028  0.596
 
band     4 # energy    1.73227078 # occ.  2.00000000
 
ion      s      p      d    tot
    1  0.000  0.238  0.034  0.272
    2  0.000  0.349  0.000  0.349
tot    0.000  0.587  0.034  0.621
 
band     5 # energy    5.30966625 # occ.  0.00000000
 
ion      s      p      d    tot
    1  0.234  0.084  0.037  0.355
    2  0.110  0.113  0.000  0.223
tot    0.344  0.197  0.037  0.578
 
band     6 # energy    7.51591130 # occ.  0.00000000
 
ion      s      p      d    tot
    1  0.009  0.224  0.075  0.308
    2  0.007  0.067  0.000  0.075
tot    0.017  0.292  0.075  0.383
 
band     7 # energy    8.11409873 # occ.  0.00000000
 
ion      s      p      d    tot
    1  0.000  0.276  0.078  0.355
    2  0.000  0.069  0.000  0.069
tot    0.000  0.345  0.078  0.423
 
band     8 # energy   11.21842781 # occ.  0.00000000
 
ion      s      p      d    tot
    1  0.009  0.114  0.068  0.192
    2  0.004  0.248  0.000  0.252
tot    0.013  0.362  0.068  0.443
 

 k-point    11 :   -0.33333333 0.11111111 0.00000000     weight = 0.03292181

band     1 # energy   -7.72637695 # occ.  2.00000000
 
ion      s      p      d    tot
    1  0.180  0.048  0.008  0.236
    2  0.406  0.006  0.000  0.411
tot    0.585  0.054  0.008  0.647
 
band     2 # energy   -2.53073616 # occ.  2.00000000
 
ion      s      p      d    tot
    1  0.279  0.114  0.010  0.403
    2  0.074  0.154  0.000  0.229
tot    0.353  0.268  0.010  0.631
 
band     3 # energy    0.99659161 # occ.  2.00000000
 
ion      s      p      d    tot
    1  0.046  0.216  0.029  0.290
    2  0.019  0.280  0.000  0.299
tot    0.064  0.496  0.029  0.589
 
band     4 # energy    2.02011076 # occ.  2.00000000
 
ion      s      p      d    tot
    1  0.000  0.222  0.042  0.264
    2  0.000  0.365  0.000  0.365
tot    0.000  0.586  0.042  0.628
 
band     5 # energy    5.43227667 # occ.  0.00000000
 
ion      s      p      d    tot
    1  0.236  0.094  0.032  0.362
    2  0.112  0.114  0.000  0.227
tot    0.349  0.208  0.032  0.589
 
band     6 # energy    7.74798454 # occ.  0.00000000
 
ion      s      p      d    tot
    1  0.007  0.241  0.072  0.320
    2  0.008  0.074  0.000  0.082
tot    0.015  0.316  0.072  0.402
 
band     7 # energy    7.96710156 # occ.  0.00000000
 
ion      s      p      d    tot
    1  0.000  0.323  0.061  0.384
    2  0.000  0.066  0.000  0.066
tot    0.000  0.388  0.061  0.450
 
band     8 # energy   10.30219171 # occ.  0.00000000
 
ion      s      p      d    tot
    1  0.029  0.126  0.056  0.211
    2  0.033  0.236  0.000  0.269
tot    0.062  0.362  0.056  0.480
 

 k-point    12 :   -0.22222222 0.11111111 0.00000000     weight = 0.03292181

band     1 # energy   -8.34644374 # occ.  2.00000000
 
ion      s      p      d    tot
    1  0.227  0.028  0.004  0.259
    2  0.370  0.005  0.000  0.376
tot    0.598  0.034  0.004  0.635
 
band     2 # energy   -1.04881389 # occ.  2.00000000
 
ion      s      p      d    tot
    1  0.225  0.118  0.025  0.368
    2  0.110  0.176  0.000  0.286
tot    0.335  0.294  0.025  0.655
 
band     3 # energy    1.26973153 # occ.  2.00000000
 
ion      s      p      d    tot
    1  0.031  0.217  0.034  0.281
    2  0.010  0.293  0.000  0.303
tot    0.041  0.510  0.034  0.584
 
band     4 # energy    2.41113275 # occ.  2.00000000
 
ion      s      p      d    tot
    1  0.000  0.191  0.056  0.247
    2  0.000  0.388  0.000  0.388
tot    0.000  0.579  0.056  0.635
 
band     5 # energy    5.67403635 # occ.  0.00000000
 
ion      s      p      d    tot
    1  0.239  0.107  0.022  0.369
    2  0.118  0.127  0.000  0.245
tot    0.358  0.234  0.022  0.614
 
band     6 # energy    7.70205308 # occ.  0.00000000
 
ion      s      p      d    tot
    1  0.000  0.408  0.032  0.440
    2  0.000  0.061  0.000  0.061
tot    0.000  0.469  0.032  0.501
 
band     7 # energy    7.77048485 # occ.  0.00000000
 
ion      s      p      d    tot
    1  0.016  0.296  0.054  0.366
    2  0.025  0.086  0.000  0.111
tot    0.042  0.382  0.054  0.477
 
band     8 # energy    8.98563010 # occ.  0.00000000
 
ion      s      p      d    tot
    1  0.034  0.154  0.051  0.239
    2  0.043  0.191  0.000  0.235
tot    0.077  0.345  0.051  0.473
 

 k-point    13 :   -0.11111111 0.11111111 0.00000000     weight = 0.01646091

band     1 # energy   -8.82565394 # occ.  2.00000000
 
ion      s      p      d    tot
    1  0.257  0.013  0.001  0.271
    2  0.354  0.003  0.000  0.356
tot    0.611  0.015  0.001  0.627
 
band     2 # energy    0.53568421 # occ.  2.00000000
 
ion      s      p      d    tot
    1  0.177  0.113  0.042  0.332
    2  0.121  0.216  0.000  0.337
tot    0.298  0.329  0.042  0.668
 
band     3 # energy    1.90501048 # occ.  2.00000000
 
ion      s      p      d    tot
    1  0.011  0.204  0.047  0.262
    2  0.001  0.330  0.000  0.331
tot    0.012  0.535  0.047  0.594
 
band     4 # energy    2.73938680 # occ.  2.00000000
 
ion      s      p      d    tot
    1  0.000  0.155  0.071  0.226
    2  0.000  0.412  0.000  0.412
tot    0.000  0.567  0.071  0.638
 
band     5 # energy    5.67550652 # occ.  0.00000000
 
ion      s      p      d    tot
    1  0.265  0.086  0.013  0.364
    2  0.160  0.145  0.000  0.305
tot    0.425  0.231  0.013  0.669
 
band     6 # energy    7.13248055 # occ.  0.00000000
 
ion      s      p      d    tot
    1  0.018  0.325  0.037  0.380
    2  0.038  0.073  0.000  0.111
tot    0.056  0.397  0.037  0.491
 
band     7 # energy    7.25428006 # occ.  0.00000000
 
ion      s      p      d    tot
    1  0.000  0.459  0.016  0.475
    2  0.000  0.045  0.000  0.045
tot    0.000  0.504  0.016  0.520
 
band     8 # energy    8.25606365 # occ.  0.00000000
 
ion      s      p      d    tot
    1  0.017  0.308  0.037  0.362
    2  0.025  0.148  0.000  0.173
tot    0.042  0.456  0.037  0.534
 

 k-point    14 :    0.22222222 0.22222222-0.00000000     weight = 0.00823045

band     1 # energy   -8.45911523 # occ.  2.00000000
 
ion      s      p      d    tot
    1  0.234  0.026  0.003  0.262
    2  0.365  0.005  0.000  0.370
tot    0.598  0.031  0.003  0.632
 
band     2 # energy   -0.26181947 # occ.  2.00000000
 
ion      s      p      d    tot
    1  0.260  0.075  0.039  0.374
    2  0.147  0.181  0.000  0.327
tot    0.407  0.255  0.039  0.701
 
band     3 # energy    1.56689608 # occ.  2.00000000
 
ion      s      p      d    tot
    1  0.000  0.233  0.036  0.270
    2  0.000  0.329  0.000  0.329
tot    0.000  0.562  0.036  0.599
 
band     4 # energy    1.56689620 # occ.  2.00000000
 
ion      s      p      d    tot
    1  0.000  0.233  0.036  0.270
    2  0.000  0.329  0.000  0.329
tot    0.000  0.562  0.036  0.599
 
band     5 # energy    5.36533496 # occ.  0.00000000
 
ion      s      p      d    tot
    1  0.142  0.189  0.036  0.366
    2  0.003  0.074  0.000  0.078
tot    0.145  0.263  0.036  0.444
 
band     6 # energy    6.69549753 # occ.  0.00000000
 
ion      s      p      d    tot
    1  0.108  0.146  0.032  0.286
    2  0.128  0.135  0.000  0.264
tot    0.236  0.281  0.032  0.550
 
band     7 # energy    9.15245733 # occ.  0.00000000
 
ion      s      p      d    tot
    1  0.000  0.359  0.049  0.408
    2  0.000  0.136  0.000  0.136
tot    0.000  0.495  0.049  0.544
 
band     8 # energy    9.15245737 # occ.  0.00000000
 
ion      s      p      d    tot
    1  0.000  0.359  0.049  0.408
    2  0.000  0.136  0.000  0.136
tot    0.000  0.495  0.049  0.544
 

 k-point    15 :    0.33333333 0.22222222-0.00000000     weight = 0.03292181

band     1 # energy   -7.99211313 # occ.  2.00000000
 
ion      s      p      d    tot
    1  0.200  0.042  0.006  0.248
    2  0.384  0.007  0.000  0.392
tot    0.584  0.049  0.006  0.639
 
band     2 # energy   -1.41155450 # occ.  2.00000000
 
ion      s      p      d    tot
    1  0.302  0.078  0.026  0.406
    2  0.126  0.160  0.000  0.286
tot    0.428  0.238  0.026  0.692
 
band     3 # energy    1.00455321 # occ.  2.00000000
 
ion      s      p      d    tot
    1  0.022  0.235  0.027  0.284
    2  0.007  0.290  0.000  0.297
tot    0.029  0.525  0.027  0.581
 
band     4 # energy    1.23610811 # occ.  2.00000000
 
ion      s      p      d    tot
    1  0.000  0.251  0.027  0.278
    2  0.000  0.318  0.000  0.318
tot    0.000  0.568  0.027  0.595
 
band     5 # energy    5.41702432 # occ.  0.00000000
 
ion      s      p      d    tot
    1  0.129  0.155  0.049  0.333
    2  0.014  0.091  0.000  0.105
tot    0.143  0.246  0.049  0.438
 
band     6 # energy    6.68631133 # occ.  0.00000000
 
ion      s      p      d    tot
    1  0.097  0.131  0.050  0.278
    2  0.082  0.118  0.000  0.200
tot    0.180  0.248  0.050  0.477
 
band     7 # energy    9.21057496 # occ.  0.00000000
 
ion      s      p      d    tot
    1  0.016  0.233  0.078  0.327
    2  0.027  0.104  0.000  0.131
tot    0.043  0.337  0.078  0.457
 
band     8 # energy    9.74901746 # occ.  0.00000000
 
ion      s      p      d    tot
    1  0.000  0.318  0.063  0.382
    2  0.000  0.137  0.000  0.137
tot    0.000  0.456  0.063  0.519
 

 k-point    16 :    0.44444444 0.22222222-0.00000000     weight = 0.03292181

band     1 # energy   -7.40000484 # occ.  2.00000000
 
ion      s      p      d    tot
    1  0.145  0.063  0.010  0.219
    2  0.425  0.007  0.000  0.432
tot    0.570  0.070  0.010  0.650
 
band     2 # energy   -2.59047536 # occ.  2.00000000
 
ion      s      p      d    tot
    1  0.357  0.076  0.012  0.445
    2  0.080  0.147  0.000  0.227
tot    0.437  0.223  0.012  0.672
 
band     3 # energy    0.31873031 # occ.  2.00000000
 
ion      s      p      d    tot
    1  0.045  0.224  0.021  0.291
    2  0.015  0.254  0.000  0.269
tot    0.061  0.478  0.021  0.560
 
band     4 # energy    1.12513661 # occ.  2.00000000
 
ion      s      p      d    tot
    1  0.000  0.258  0.023  0.281
    2  0.000  0.316  0.000  0.316
tot    0.000  0.575  0.023  0.598
 
band     5 # energy    5.52227334 # occ.  0.00000000
 
ion      s      p      d    tot
    1  0.128  0.122  0.059  0.309
    2  0.040  0.087  0.000  0.127
tot    0.168  0.209  0.059  0.436
 
band     6 # energy    7.51335034 # occ.  0.00000000
 
ion      s      p      d    tot
    1  0.104  0.107  0.048  0.259
    2  0.036  0.189  0.000  0.225
tot    0.140  0.296  0.048  0.484
 
band     7 # energy    9.08700582 # occ.  0.00000000
 
ion      s      p      d    tot
    1  0.010  0.225  0.091  0.326
    2  0.042  0.060  0.000  0.102
tot    0.052  0.285  0.091  0.428
 
band     8 # energy    9.68775422 # occ.  0.00000000
 
ion      s      p      d    tot
    1  0.000  0.268  0.080  0.348
    2  0.000  0.116  0.000  0.116
tot    0.000  0.384  0.080  0.464
 

 k-point    17 :   -0.44444444 0.22222222-0.00000000     weight = 0.03292181

band     1 # energy   -7.01524663 # occ.  2.00000000
 
ion      s      p      d    tot
    1  0.097  0.077  0.015  0.189
    2  0.468  0.003  0.000  0.472
tot    0.565  0.080  0.015  0.661
 
band     2 # energy   -3.22216531 # occ.  2.00000000
 
ion      s      p      d    tot
    1  0.406  0.071  0.003  0.480
    2  0.034  0.144  0.000  0.177
tot    0.439  0.215  0.003  0.657
 
band     3 # energy   -0.16781116 # occ.  2.00000000
 
ion      s      p      d    tot
    1  0.051  0.221  0.018  0.290
    2  0.018  0.238  0.000  0.256
tot    0.069  0.459  0.018  0.546
 
band     4 # energy    1.25372275 # occ.  2.00000000
 
ion      s      p      d    tot
    1  0.000  0.256  0.025  0.281
    2  0.000  0.323  0.000  0.323
tot    0.000  0.580  0.025  0.604
 
band     5 # energy    5.61270320 # occ.  0.00000000
 
ion      s      p      d    tot
    1  0.140  0.115  0.059  0.314
    2  0.053  0.082  0.000  0.135
tot    0.192  0.198  0.059  0.449
 
band     6 # energy    8.09112421 # occ.  0.00000000
 
ion      s      p      d    tot
    1  0.092  0.099  0.046  0.237
    2  0.025  0.208  0.000  0.234
tot    0.117  0.307  0.046  0.470
 
band     7 # energy    9.35049987 # occ.  0.00000000
 
ion      s      p      d    tot
    1  0.000  0.260  0.080  0.339
    2  0.000  0.103  0.000  0.103
tot    0.000  0.362  0.080  0.442
 
band     8 # energy   10.05574499 # occ.  0.00000000
 
ion      s      p      d    tot
    1  0.014  0.180  0.105  0.299
    2  0.027  0.108  0.000  0.135
tot    0.041  0.287  0.105  0.434
 

 k-point    18 :   -0.33333333 0.22222222 0.00000000     weight = 0.03292181

band     1 # energy   -7.24971070 # occ.  2.00000000
 
ion      s      p      d    tot
    1  0.130  0.067  0.012  0.209
    2  0.441  0.005  0.000  0.447
tot    0.571  0.072  0.012  0.655
 
band     2 # energy   -2.84070077 # occ.  2.00000000
 
ion      s      p      d    tot
    1  0.374  0.079  0.007  0.460
    2  0.062  0.144  0.000  0.206
tot    0.437  0.223  0.007  0.666
 
band     3 # energy   -0.30176254 # occ.  2.00000000
 
ion      s      p      d    tot
    1  0.042  0.227  0.016  0.285
    2  0.012  0.236  0.000  0.248
tot    0.055  0.463  0.016  0.534
 
band     4 # energy    1.59228367 # occ.  2.00000000
 
ion      s      p      d    tot
    1  0.000  0.244  0.032  0.275
    2  0.000  0.339  0.000  0.339
tot    0.000  0.583  0.032  0.615
 
band     5 # energy    5.87438873 # occ.  0.00000000
 
ion      s      p      d    tot
    1  0.161  0.122  0.051  0.334
    2  0.062  0.093  0.000  0.156
tot    0.223  0.216  0.051  0.490
 
band     6 # energy    8.24957485 # occ.  0.00000000
 
ion      s      p      d    tot
    1  0.070  0.114  0.050  0.235
    2  0.022  0.180  0.000  0.203
tot    0.093  0.295  0.050  0.438
 
band     7 # energy    8.96197073 # occ.  0.00000000
 
ion      s      p      d    tot
    1  0.000  0.304  0.060  0.365
    2  0.000  0.100  0.000  0.100
tot    0.000  0.404  0.060  0.464
 
band     8 # energy   10.12890597 # occ.  0.00000000
 
ion      s      p      d    tot
    1  0.030  0.122  0.088  0.241
    2  0.036  0.206  0.000  0.242
tot    0.066  0.328  0.088  0.482
 

 k-point    19 :   -0.22222222 0.22222222-0.00000000     weight = 0.01646091

band     1 # energy   -7.82835220 # occ.  2.00000000
 
ion      s      p      d    tot
    1  0.188  0.046  0.007  0.241
    2  0.396  0.007  0.000  0.403
tot    0.584  0.053  0.007  0.644
 
band     2 # energy   -1.88036818 # occ.  2.00000000
 
ion      s      p      d    tot
    1  0.304  0.092  0.018  0.415
    2  0.108  0.154  0.000  0.263
tot    0.412  0.247  0.018  0.678
 
band     3 # energy    0.11353857 # occ.  2.00000000
 
ion      s      p      d    tot
    1  0.032  0.234  0.019  0.284
    2  0.004  0.249  0.000  0.253
tot    0.035  0.483  0.019  0.537
 
band     4 # energy    2.04677076 # occ.  2.00000000
 
ion      s      p      d    tot
    1  0.000  0.219  0.043  0.263
    2  0.000  0.364  0.000  0.364
tot    0.000  0.583  0.043  0.627
 
band     5 # energy    6.12669085 # occ.  0.00000000
 
ion      s      p      d    tot
    1  0.201  0.126  0.034  0.362