<?xml version="1.0" encoding="ISO-8859-1"?>
<modeling>
 <generator>
  <i name="program" type="string">vasp </i>
  <i name="version" type="string">5.4.4.18Apr17-6-g9f103f2a35  </i>
  <i name="subversion" type="string">(build Apr 10 2018 17:34:00) complex            parallel </i>
  <i name="platform" type="string">LinuxIFC </i>
  <i name="date" type="string">2018 10 04 </i>
  <i name="time" type="string">08:19:44 </i>
 </generator>
 <incar>
  <i type="string" name="SYSTEM"> GaP</i>
  <i type="string" name="PREC">accurate  ! calcululation level (change</i>
  <i type="string" name="ALGO"> NORMAL    ! A Davidson blocked iteratio</i>
  <i type="logical" name="ADDGRID"> T  </i>
  <i type="int" name="ISPIN">     1</i>
  <i name="AMIX">      0.20000000</i>
  <i name="BMIX">      0.00100000</i>
  <i type="int" name="NELM">   100</i>
  <i type="int" name="NELMDL">    -8</i>
  <i type="int" name="NELMIN">     6</i>
  <i type="int" name="IBRION">     2</i>
  <i name="EDIFF">      0.00000010</i>
  <i name="EDIFFG">     -0.00100000</i>
  <i type="int" name="NSW">   100</i>
  <i type="int" name="ISIF">     3</i>
  <i name="ENCUT">    510.00000000</i>
  <i name="POTIM">      0.50000000</i>
  <i type="int" name="NEDOS">    11</i>
  <i type="logical" name="LREAL"> F  </i>
  <i type="logical" name="LPLANE"> T  </i>
  <i type="int" name="ISMEAR">     0</i>
  <i name="SIGMA">      0.01000000</i>
  <i type="int" name="NWRITE">     1</i>
  <i type="int" name="LMAXMIX">     6</i>
  <i type="logical" name="LWAVE"> F  </i>
  <i type="logical" name="LCHARG"> F  </i>
  <i type="int" name="LORBIT">    10</i>
  <i type="logical" name="LASPH"> T  </i>
  <v type="int" name="KPOINT_BSE">    -1     0     0     0</v>
  <i type="int" name="NELM">   100</i>
  <i type="logical" name="LASPH"> T  </i>
 </incar>
 <structure name="primitive_cell" >
  <crystal>
   <varray name="basis" >
    <v>       0.00000000       2.76690150       2.76690150 </v>
    <v>       2.76690150       0.00000000       2.76690150 </v>
    <v>       2.76690150       2.76690150       0.00000000 </v>
   </varray>
   <i name="volume">     42.36537878 </i>
   <varray name="rec_basis" >
    <v>      -0.18070755       0.18070755       0.18070755 </v>
    <v>       0.18070755      -0.18070755       0.18070755 </v>
    <v>       0.18070755       0.18070755      -0.18070755 </v>
   </varray>
  </crystal>
  <varray name="positions" >
   <v>       0.00000000       0.00000000       0.00000000 </v>
   <v>       0.25000000       0.25000000       0.25000000 </v>
  </varray>
 </structure>
 <varray name="primitive_index" >
  <v type="int" >        1 </v>
  <v type="int" >        2 </v>
 </varray>
 <kpoints>
  <generation param="Auto">
   <i name="subdivisionlength">     30.00000000 </i>
   <v type="int" name="divisions">       9        9        9 </v>
   <v name="usershift">      0.00000000       0.00000000       0.00000000 </v>
   <v name="genvec1">      0.11111111       0.00000000      -0.00000000 </v>
   <v name="genvec2">      0.00000000       0.11111111       0.00000000 </v>
   <v name="genvec3">     -0.00000000      -0.00000000       0.11111111 </v>
   <v name="shift">      0.00000000       0.00000000       0.00000000 </v>
  </generation>
  <varray name="kpointlist" >
   <v>       0.00000000       0.00000000       0.00000000 </v>
   <v>       0.11111111       0.00000000      -0.00000000 </v>
   <v>       0.22222222      -0.00000000      -0.00000000 </v>
   <v>       0.33333333       0.00000000       0.00000000 </v>
   <v>       0.44444444      -0.00000000      -0.00000000 </v>
   <v>       0.11111111       0.11111111      -0.00000000 </v>
   <v>       0.22222222       0.11111111      -0.00000000 </v>
   <v>       0.33333333       0.11111111      -0.00000000 </v>
   <v>       0.44444444       0.11111111      -0.00000000 </v>
   <v>      -0.44444444       0.11111111       0.00000000 </v>
   <v>      -0.33333333       0.11111111       0.00000000 </v>
   <v>      -0.22222222       0.11111111       0.00000000 </v>
   <v>      -0.11111111       0.11111111       0.00000000 </v>
   <v>       0.22222222       0.22222222      -0.00000000 </v>
   <v>       0.33333333       0.22222222      -0.00000000 </v>
   <v>       0.44444444       0.22222222      -0.00000000 </v>
   <v>      -0.44444444       0.22222222      -0.00000000 </v>
   <v>      -0.33333333       0.22222222       0.00000000 </v>
   <v>      -0.22222222       0.22222222      -0.00000000 </v>
   <v>       0.33333333       0.33333333      -0.00000000 </v>
   <v>       0.44444444       0.33333333       0.00000000 </v>
   <v>      -0.44444444       0.33333333      -0.00000000 </v>
   <v>      -0.33333333       0.33333333      -0.00000000 </v>
   <v>       0.44444444       0.44444444      -0.00000000 </v>
   <v>      -0.44444444       0.44444444      -0.00000000 </v>
   <v>       0.33333333       0.22222222       0.11111111 </v>
   <v>       0.44444444       0.22222222       0.11111111 </v>
   <v>      -0.44444444       0.22222222       0.11111111 </v>
   <v>       0.44444444       0.33333333       0.11111111 </v>
   <v>      -0.44444444       0.33333333       0.11111111 </v>
   <v>      -0.33333333       0.33333333       0.11111111 </v>
   <v>      -0.22222222       0.33333333       0.11111111 </v>
   <v>      -0.44444444       0.44444444       0.11111111 </v>
   <v>      -0.33333333       0.44444444       0.11111111 </v>
   <v>      -0.33333333       0.44444444       0.22222222 </v>
  </varray>
  <varray name="weights" >
   <v>       0.00137174 </v>
   <v>       0.01097394 </v>
   <v>       0.01097394 </v>
   <v>       0.01097394 </v>
   <v>       0.01097394 </v>
   <v>       0.00823045 </v>
   <v>       0.03292181 </v>
   <v>       0.03292181 </v>
   <v>       0.03292181 </v>
   <v>       0.03292181 </v>
   <v>       0.03292181 </v>
   <v>       0.03292181 </v>
   <v>       0.01646091 </v>
   <v>       0.00823045 </v>
   <v>       0.03292181 </v>
   <v>       0.03292181 </v>
   <v>       0.03292181 </v>
   <v>       0.03292181 </v>
   <v>       0.01646091 </v>
   <v>       0.00823045 </v>
   <v>       0.03292181 </v>
   <v>       0.03292181 </v>
   <v>       0.01646091 </v>
   <v>       0.00823045 </v>
   <v>       0.01646091 </v>
   <v>       0.03292181 </v>
   <v>       0.06584362 </v>
   <v>       0.06584362 </v>
   <v>       0.03292181 </v>
   <v>       0.06584362 </v>
   <v>       0.06584362 </v>
   <v>       0.03292181 </v>
   <v>       0.03292181 </v>
   <v>       0.03292181 </v>
   <v>       0.03292181 </v>
  </varray>
 </kpoints>
 <parameters>
  <separator name="general" >
   <i type="string" name="SYSTEM">GaP</i>
   <i type="logical" name="LCOMPAT"> F  </i>
  </separator>
  <separator name="electronic" >
   <i type="string" name="PREC">accura</i>
   <i name="ENMAX">    510.00000000</i>
   <i name="ENAUG">    342.92400000</i>
   <i name="EDIFF">      0.00000010</i>
   <i type="int" name="IALGO">    38</i>
   <i type="int" name="IWAVPR">    11</i>
   <i type="int" name="NBANDS">     8</i>
   <i name="NELECT">      8.00000000</i>
   <i type="int" name="TURBO">     0</i>
   <i type="int" name="IRESTART">     0</i>
   <i type="int" name="NREBOOT">     0</i>
   <i type="int" name="NMIN">     0</i>
   <i name="EREF">      0.00000000</i>
   <separator name="electronic smearing" >
    <i type="int" name="ISMEAR">     0</i>
    <i name="SIGMA">      0.01000000</i>
    <i name="KSPACING">      0.50000000</i>
    <i type="logical" name="KGAMMA"> T  </i>
   </separator>
   <separator name="electronic projectors" >
    <i type="logical" name="LREAL"> F  </i>
    <v name="ROPT">      0.00000000      0.00000000</v>
    <i type="int" name="LMAXPAW">  -100</i>
    <i type="int" name="LMAXMIX">     6</i>
    <i type="logical" name="NLSPLINE"> F  </i>
   </separator>
   <separator name="electronic startup" >
    <i type="int" name="ISTART">     0</i>
    <i type="int" name="ICHARG">     2</i>
    <i type="int" name="INIWAV">     1</i>
   </separator>
   <separator name="electronic spin" >
    <i type="int" name="ISPIN">     1</i>
    <i type="logical" name="LNONCOLLINEAR"> F  </i>
    <v name="MAGMOM">      1.00000000      1.00000000</v>
    <i name="NUPDOWN">     -1.00000000</i>
    <i type="logical" name="LSORBIT"> F  </i>
    <v name="SAXIS">      0.00000000      0.00000000      1.00000000</v>
    <i type="logical" name="LSPIRAL"> F  </i>
    <v name="QSPIRAL">      0.00000000      0.00000000      0.00000000</v>
    <i type="logical" name="LZEROZ"> F  </i>
   </separator>
   <separator name="electronic exchange-correlation" >
    <i type="logical" name="LASPH"> T  </i>
    <i type="logical" name="LMETAGGA"> F  </i>
   </separator>
   <separator name="electronic convergence" >
    <i type="int" name="NELM">   100</i>
    <i type="int" name="NELMDL">    -8</i>
    <i type="int" name="NELMIN">     6</i>
    <i name="ENINI">    510.00000000</i>
    <separator name="electronic convergence detail" >
     <i type="logical" name="LDIAG"> T  </i>
     <i type="logical" name="LSUBROT"> F  </i>
     <i name="WEIMIN">      0.00100000</i>
     <i name="EBREAK">      0.00000000</i>
     <i name="DEPER">      0.30000000</i>
     <i type="int" name="NRMM">     4</i>
     <i name="TIME">      0.40000000</i>
    </separator>
   </separator>
   <separator name="electronic mixer" >
    <i name="AMIX">      0.20000000</i>
    <i name="BMIX">      0.00100000</i>
    <i name="AMIN">      0.10000000</i>
    <i name="AMIX_MAG">      0.80000000</i>
    <i name="BMIX_MAG">      0.00100000</i>
    <separator name="electronic mixer details" >
     <i type="int" name="IMIX">     4</i>
     <i type="logical" name="MIXFIRST"> F  </i>
     <i type="int" name="MAXMIX">   -45</i>
     <i name="WC">    100.00000000</i>
     <i type="int" name="INIMIX">     1</i>
     <i type="int" name="MIXPRE">     1</i>
     <i type="int" name="MREMOVE">     5</i>
    </separator>
   </separator>
   <separator name="electronic dipolcorrection" >
    <i type="logical" name="LDIPOL"> F  </i>
    <i type="logical" name="LMONO"> F  </i>
    <i type="int" name="IDIPOL">     0</i>
    <i name="EPSILON">      1.00000000</i>
    <v name="DIPOL">   -100.00000000   -100.00000000   -100.00000000</v>
    <i name="EFIELD">      0.00000000</i>
   </separator>
  </separator>
  <separator name="grids" >
   <i type="int" name="NGX">    30</i>
   <i type="int" name="NGY">    30</i>
   <i type="int" name="NGZ">    30</i>
   <i type="int" name="NGXF">    60</i>
   <i type="int" name="NGYF">    60</i>
   <i type="int" name="NGZF">    60</i>
   <i type="logical" name="ADDGRID"> T  </i>
  </separator>
  <separator name="ionic" >
   <i type="int" name="NSW">   100</i>
   <i type="int" name="IBRION">     2</i>
   <i type="int" name="MDALGO">     0</i>
   <i type="int" name="ISIF">     3</i>
   <i name="PSTRESS">      0.00000000</i>
   <i name="EDIFFG">     -0.00100000</i>
   <i type="int" name="NFREE">     1</i>
   <i name="POTIM">      0.50000000</i>
   <i name="SMASS">     -3.00000000</i>
   <i name="SCALEE">      1.00000000</i>
  </separator>
  <separator name="ionic md" >
   <i name="TEBEG">      0.00010000</i>
   <i name="TEEND">      0.00010000</i>
   <i type="int" name="NBLOCK">     1</i>
   <i type="int" name="KBLOCK">   100</i>
   <i type="int" name="NPACO">   256</i>
   <i name="APACO">     16.00000000</i>
  </separator>
  <separator name="symmetry" >
   <i type="int" name="ISYM">     2</i>
   <i name="SYMPREC">      0.00001000</i>
  </separator>
  <separator name="dos" >
   <i type="int" name="LORBIT">    10</i>
   <v name="RWIGS">     -1.00000000     -1.00000000</v>
   <i type="int" name="NEDOS">    11</i>
   <i name="EMIN">     10.00000000</i>
   <i name="EMAX">    -10.00000000</i>
   <i name="EFERMI">      0.00000000</i>
  </separator>
  <separator name="writing" >
   <i type="int" name="NWRITE">     1</i>
   <i type="logical" name="LWAVE"> F  </i>
   <i type="logical" name="LDOWNSAMPLE"> F  </i>
   <i type="logical" name="LCHARG"> F  </i>
   <i type="logical" name="LPARD"> F  </i>
   <i type="logical" name="LVTOT"> F  </i>
   <i type="logical" name="LVHAR"> F  </i>
   <i type="logical" name="LELF"> F  </i>
   <i type="logical" name="LOPTICS"> F  </i>
   <v name="STM">      0.00000000      0.00000000      0.00000000      0.00000000      0.00000000      0.00000000      0.00000000</v>
  </separator>
  <separator name="performance" >
   <i type="int" name="NPAR">     2</i>
   <i type="int" name="NSIM">     4</i>
   <i type="int" name="NBLK">    -1</i>
   <i type="logical" name="LPLANE"> T  </i>
   <i type="logical" name="LSCALAPACK"> T  </i>
   <i type="logical" name="LSCAAWARE"> F  </i>
   <i type="logical" name="LSCALU"> F  </i>
   <i type="logical" name="LASYNC"> F  </i>
   <i type="logical" name="LORBITALREAL"> F  </i>
  </separator>
  <separator name="miscellaneous" >
   <i type="int" name="IDIOT">     3</i>
   <i type="int" name="ISPECIAL">     0</i>
   <i type="logical" name="LMUSIC"> F  </i>
   <v name="POMASS">     69.72300000     30.97400000</v>
   <v name="DARWINR">      0.00000000      0.00000000</v>
   <v name="DARWINV">      1.00000000      1.00000000</v>
   <i type="logical" name="LCORR"> T  </i>
  </separator>
  <i type="logical" name="GGA_COMPAT"> T  </i>
  <i type="logical" name="LBERRY"> F  </i>
  <i type="int" name="ICORELEVEL">     0</i>
  <i type="logical" name="LDAU"> F  </i>
  <i type="int" name="I_CONSTRAINED_M">     0</i>
  <separator name="electronic exchange-correlation" >
   <i type="string" name="GGA">--</i>
   <i type="int" name="VOSKOWN">     0</i>
   <i type="logical" name="LHFCALC"> F  </i>
   <i type="string" name="PRECFOCK"></i>
   <i type="logical" name="LSYMGRAD"> F  </i>
   <i type="logical" name="LHFONE"> F  </i>
   <i type="logical" name="LRHFCALC"> F  </i>
   <i type="logical" name="LTHOMAS"> F  </i>
   <i type="logical" name="LMODELHF"> F  </i>
   <i name="ENCUT4O">     -1.00000000</i>
   <i type="int" name="EXXOEP">     0</i>
   <i type="int" name="FOURORBIT">     0</i>
   <i name="AEXX">      0.00000000</i>
   <i name="HFALPHA">      0.00000000</i>
   <i name="MCALPHA">      0.00000000</i>
   <i name="ALDAX">      1.00000000</i>
   <i name="AGGAX">      1.00000000</i>
   <i name="ALDAC">      1.00000000</i>
   <i name="AGGAC">      1.00000000</i>
   <i type="int" name="NKREDX">     1</i>
   <i type="int" name="NKREDY">     1</i>
   <i type="int" name="NKREDZ">     1</i>
   <i type="logical" name="SHIFTRED"> F  </i>
   <i type="logical" name="ODDONLY"> F  </i>
   <i type="logical" name="EVENONLY"> F  </i>
   <i type="int" name="LMAXFOCK">     0</i>
   <i type="int" name="NMAXFOCKAE">     0</i>
   <i type="logical" name="LFOCKAEDFT"> F  </i>
   <i name="HFSCREEN">      0.00000000</i>
   <i name="HFSCREENC">      0.00000000</i>
   <i type="int" name="NBANDSGWLOW">     0</i>
  </separator>
  <separator name="vdW DFT" >
   <i type="logical" name="LUSE_VDW"> F  </i>
   <i name="Zab_VDW">     -0.84910000</i>
   <i name="PARAM1">      0.12340000</i>
   <i name="PARAM2">      1.00000000</i>
   <i name="PARAM3">      0.00000000</i>
  </separator>
  <separator name="model GW" >
   <i type="int" name="MODEL_GW">     0</i>
   <i name="MODEL_EPS0">     12.70961363</i>
   <i name="MODEL_ALPHA">      1.00000000</i>
  </separator>
  <separator name="linear response parameters" >
   <i type="logical" name="LEPSILON"> F  </i>
   <i type="logical" name="LRPA"> F  </i>
   <i type="logical" name="LNABLA"> F  </i>
   <i type="logical" name="LVEL"> F  </i>
   <i type="int" name="KINTER">     0</i>
   <i name="CSHIFT">      0.10000000</i>
   <i name="OMEGAMAX">     -1.00000000</i>
   <i name="DEG_THRESHOLD">      0.00200000</i>
   <i name="RTIME">     -0.10000000</i>
   <i name="WPLASMAI">      0.00000000</i>
   <v name="DFIELD">      0.00000000      0.00000000      0.00000000</v>
   <v name="WPLASMA">      0.00000000      0.00000000      0.00000000      0.00000000      0.00000000      0.00000000      0.00000000      0.00000000      0.00000000</v>
  </separator>
  <separator name="orbital magnetization" >
   <i type="logical" name="NUCIND"> F  </i>
   <v name="MAGPOS">      0.00000000      0.00000000      0.00000000</v>
   <i type="logical" name="LNICSALL"> T  </i>
   <i type="logical" name="ORBITALMAG"> F  </i>
   <i type="logical" name="LMAGBLOCH"> F  </i>
   <i type="logical" name="LCHIMAG"> F  </i>
   <i type="logical" name="LGAUGE"> T  </i>
   <i type="int" name="MAGATOM">     0</i>
   <v name="MAGDIPOL">      0.00000000      0.00000000      0.00000000</v>
   <v name="AVECCONST">      0.00000000      0.00000000      0.00000000</v>
  </separator>
  <separator name="response functions" >
   <i type="logical" name="LADDER"> F  </i>
   <i type="logical" name="LRPAFORCE"> F  </i>
   <i type="logical" name="LFXC"> F  </i>
   <i type="logical" name="LHARTREE"> T  </i>
   <i type="int" name="IBSE">     0</i>
   <v type="int" name="KPOINT">    -1     0     0     0</v>
   <i type="logical" name="LTCTE"> F  </i>
   <i type="logical" name="LTETE"> F  </i>
   <i type="logical" name="LTRIPLET"> F  </i>
   <i type="logical" name="LFXCEPS"> F  </i>
   <i type="logical" name="LFXHEG"> F  </i>
   <i type="int" name="NATURALO">     2</i>
   <i type="logical" name="L2ORDER"> F  </i>
   <i type="logical" name="LMP2LT"> F  </i>
   <i type="logical" name="LUSEW"> F  </i>
   <i name="ENCUTGW">     -2.00000000</i>
   <i name="ENCUTGWSOFT">     -2.00000000</i>
   <i name="ENCUTLF">     -1.00000000</i>
   <i type="int" name="LMAXMP2">    -1</i>
   <i name="SCISSOR">      0.00000000</i>
   <i type="int" name="NOMEGA">     0</i>
   <i type="int" name="NOMEGAR">     0</i>
   <i type="int" name="NBANDSGW">    -1</i>
   <i type="int" name="NBANDSO">    -1</i>
   <i type="int" name="NBANDSV">    -1</i>
   <i type="int" name="NELM">   100</i>
   <i type="int" name="NELMHF">     1</i>
   <i type="int" name="DIM">     3</i>
   <i type="int" name="ANTIRES">     0</i>
   <i name="OMEGAMAX">    -30.00000000</i>
   <i name="OMEGAMIN">    -30.00000000</i>
   <i name="OMEGATL">   -200.00000000</i>
   <i type="int" name="OMEGAGRID">   140</i>
   <i name="CSHIFT">     -0.10000000</i>
   <i type="logical" name="SELFENERGY"> F  </i>
   <i type="logical" name="LSPECTRAL"> F  </i>
   <i type="logical" name="LSPECTRALGW"> F  </i>
   <i type="logical" name="LSINGLES"> F  </i>
   <i type="logical" name="LFERMIGW"> F  </i>
   <i type="logical" name="ODDONLYGW"> F  </i>
   <i type="logical" name="EVENONLYGW"> F  </i>
   <i type="int" name="NKREDLFX">     1</i>
   <i type="int" name="NKREDLFY">     1</i>
   <i type="int" name="NKREDLFZ">     1</i>
   <i type="int" name="MAXMEM">  2800</i>
   <i type="int" name="TELESCOPE">     0</i>
   <i type="int" name="TAUPAR">     1</i>
   <i type="int" name="OMEGAPAR">    -1</i>
   <i name="LAMBDA">      1.00000000</i>
  </separator>
  <separator name="External order field" >
   <i name="OFIELD_KAPPA">      0.00000000</i>
   <v name="OFIELD_K">      0.00000000      0.00000000      0.00000000</v>
   <i name="OFIELD_Q6_NEAR">      0.00000000</i>
   <i name="OFIELD_Q6_FAR">      0.00000000</i>
   <i name="OFIELD_A">      0.00000000</i>
  </separator>
 </parameters>
 <atominfo>
  <atoms>       2 </atoms>
  <types>       2 </types>
  <array name="atoms" >
   <dimension dim="1">ion</dimension>
   <field type="string">element</field>
   <field type="int">atomtype</field>
   <set>
    <rc><c>Ga</c><c>   1</c></rc>
    <rc><c>P </c><c>   2</c></rc>
   </set>
  </array>
  <array name="atomtypes" >
   <dimension dim="1">type</dimension>
   <field type="int">atomspertype</field>
   <field type="string">element</field>
   <field>mass</field>
   <field>valence</field>
   <field type="string">pseudopotential</field>
   <set>
    <rc><c>   1</c><c>Ga</c><c>     69.72300000</c><c>      3.00000000</c><c>  PAW_PBE Ga 08Apr2002                  </c></rc>
    <rc><c>   1</c><c>P </c><c>     30.97400000</c><c>      5.00000000</c><c>  PAW_PBE P 06Sep2000                   </c></rc>
   </set>
  </array>
 </atominfo>
 <structure name="initialpos" >
  <crystal>
   <varray name="basis" >
    <v>       0.00000000       2.76690150       2.76690150 </v>
    <v>       2.76690150       0.00000000       2.76690150 </v>
    <v>       2.76690150       2.76690150       0.00000000 </v>
   </varray>
   <i name="volume">     42.36537878 </i>
   <varray name="rec_basis" >
    <v>      -0.18070755       0.18070755       0.18070755 </v>
    <v>       0.18070755      -0.18070755       0.18070755 </v>
    <v>       0.18070755       0.18070755      -0.18070755 </v>
   </varray>
  </crystal>
  <varray name="positions" >
   <v>       0.00000000       0.00000000       0.00000000 </v>
   <v>       0.25000000       0.25000000       0.25000000 </v>
  </varray>
 </structure>
 <calculation>
  <scstep>
   <time name="dav">    0.05    0.05</time>
   <time name="total">    0.18    0.18</time>
   <energy>
    <i name="alphaZ">     15.01455921 </i>
    <i name="ewald">   -234.11987534 </i>
    <i name="hartreedc">    -20.45532348 </i>
    <i name="XCdc">    -16.09121844 </i>
    <i name="pawpsdc">    201.82578961 </i>
    <i name="pawaedc">   -169.96916698 </i>
    <i name="eentropy">     -0.00033123 </i>
    <i name="bandstr">      5.02973516 </i>
    <i name="atom">    234.91060119 </i>
    <i name="e_fr_energy">     16.14476969 </i>
    <i name="e_wo_entrp">     16.14510092 </i>
    <i name="e_0_energy">     16.14493530 </i>
   </energy>
  </scstep>
  <scstep>
   <time name="dav">    0.07    0.07</time>
   <time name="total">    0.07    0.07</time>
   <energy>
    <i name="e_fr_energy">     -8.81976208 </i>
    <i name="e_wo_entrp">     -8.81976208 </i>
    <i name="e_0_energy">     -8.81976208 </i>
   </energy>
  </scstep>
  <scstep>
   <time name="dav">    0.07    0.07</time>
   <time name="total">    0.07    0.07</time>
   <energy>
    <i name="e_fr_energy">     -9.37178944 </i>
    <i name="e_wo_entrp">     -9.37178944 </i>
    <i name="e_0_energy">     -9.37178944 </i>
   </energy>
  </scstep>
  <scstep>
   <time name="dav">    0.08    0.08</time>
   <time name="total">    0.08    0.08</time>
   <energy>
    <i name="e_fr_energy">     -9.37369334 </i>
    <i name="e_wo_entrp">     -9.37369334 </i>
    <i name="e_0_energy">     -9.37369334 </i>
   </energy>
  </scstep>
  <scstep>
   <time name="dav">    0.07    0.07</time>
   <time name="total">    0.07    0.07</time>
   <energy>
    <i name="e_fr_energy">     -9.37369511 </i>
    <i name="e_wo_entrp">     -9.37369511 </i>
    <i name="e_0_energy">     -9.37369511 </i>
   </energy>
  </scstep>
  <scstep>
   <time name="dav">    0.08    0.08</time>
   <time name="total">    0.08    0.08</time>
   <energy>
    <i name="e_fr_energy">     -9.37369512 </i>
    <i name="e_wo_entrp">     -9.37369512 </i>
    <i name="e_0_energy">     -9.37369512 </i>
   </energy>
  </scstep>
  <scstep>
   <time name="dav">    0.07    0.07</time>
   <time name="total">    0.07    0.07</time>
   <energy>
    <i name="e_fr_energy">     -9.37369512 </i>
    <i name="e_wo_entrp">     -9.37369512 </i>
    <i name="e_0_energy">     -9.37369512 </i>
   </energy>
  </scstep>
  <scstep>
   <time name="dav">    0.07    0.07</time>
   <time name="total">    0.10    0.10</time>
   <energy>
    <i name="e_fr_energy">     -9.37369512 </i>
    <i name="e_wo_entrp">     -9.37369512 </i>
    <i name="e_0_energy">     -9.37369512 </i>
   </energy>
  </scstep>
  <scstep>
   <time name="dav">    0.06    0.06</time>
   <time name="total">    0.21    0.21</time>
   <energy>
    <i name="e_fr_energy">     -9.21046102 </i>
    <i name="e_wo_entrp">     -9.21046102 </i>
    <i name="e_0_energy">     -9.21046102 </i>
   </energy>
  </scstep>
  <scstep>
   <time name="dav">    0.06    0.06</time>
   <time name="total">    0.21    0.21</time>
   <energy>
    <i name="e_fr_energy">     -9.11538127 </i>
    <i name="e_wo_entrp">     -9.11538127 </i>
    <i name="e_0_energy">     -9.11538127 </i>
   </energy>
  </scstep>
  <scstep>
   <time name="dav">    0.06    0.06</time>
   <time name="total">    0.21    0.21</time>
   <energy>
    <i name="e_fr_energy">     -9.10666917 </i>
    <i name="e_wo_entrp">     -9.10666917 </i>
    <i name="e_0_energy">     -9.10666917 </i>
   </energy>
  </scstep>
  <scstep>
   <time name="dav">    0.07    0.07</time>
   <time name="total">    0.22    0.22</time>
   <energy>
    <i name="e_fr_energy">     -9.10672029 </i>
    <i name="e_wo_entrp">     -9.10672029 </i>
    <i name="e_0_energy">     -9.10672029 </i>
   </energy>
  </scstep>
  <scstep>
   <time name="dav">    0.07    0.07</time>
   <time name="total">    0.22    0.22</time>
   <energy>
    <i name="e_fr_energy">     -9.10673257 </i>
    <i name="e_wo_entrp">     -9.10673257 </i>
    <i name="e_0_energy">     -9.10673257 </i>
   </energy>
  </scstep>
  <scstep>
   <time name="dav">    0.06    0.06</time>
   <time name="total">    0.22    0.22</time>
   <energy>
    <i name="e_fr_energy">     -9.10674948 </i>
    <i name="e_wo_entrp">     -9.10674948 </i>
    <i name="e_0_energy">     -9.10674948 </i>
   </energy>
  </scstep>
  <scstep>
   <time name="dav">    0.07    0.07</time>
   <time name="total">    0.22    0.22</time>
   <energy>
    <i name="e_fr_energy">     -9.10675097 </i>
    <i name="e_wo_entrp">     -9.10675097 </i>
    <i name="e_0_energy">     -9.10675097 </i>
   </energy>
  </scstep>
  <scstep>
   <time name="dav">    0.07    0.07</time>
   <time name="total">    0.22    0.22</time>
   <energy>
    <i name="e_fr_energy">     -9.10675072 </i>
    <i name="e_wo_entrp">     -9.10675072 </i>
    <i name="e_0_energy">     -9.10675072 </i>
   </energy>
  </scstep>
  <scstep>
   <time name="dav">    0.05    0.05</time>
   <time name="total">    0.17    0.17</time>
   <energy>
    <i name="alphaZ">     15.01455921 </i>
    <i name="ewald">   -234.11987534 </i>
    <i name="hartreedc">    -24.81293586 </i>
    <i name="XCdc">    -15.32707487 </i>
    <i name="pawpsdc">    752.06177715 </i>
    <i name="pawaedc">   -720.62442293 </i>
    <i name="eentropy">     -0.00000000 </i>
    <i name="bandstr">    -16.20937923 </i>
    <i name="atom">    234.91060119 </i>
    <i name="e_fr_energy">     -9.10675068 </i>
    <i name="e_wo_entrp">     -9.10675068 </i>
    <i name="e_0_energy">     -9.10675068 </i>
   </energy>
  </scstep>
  <structure>
   <crystal>
    <varray name="basis" >
     <v>       0.00000000       2.76690150       2.76690150 </v>
     <v>       2.76690150       0.00000000       2.76690150 </v>
     <v>       2.76690150       2.76690150       0.00000000 </v>
    </varray>
    <i name="volume">     42.36537878 </i>
    <varray name="rec_basis" >
     <v>      -0.18070755       0.18070755       0.18070755 </v>
     <v>       0.18070755      -0.18070755       0.18070755 </v>
     <v>       0.18070755       0.18070755      -0.18070755 </v>
    </varray>
   </crystal>
   <varray name="positions" >
    <v>       0.00000000       0.00000000       0.00000000 </v>
    <v>       0.25000000       0.25000000       0.25000000 </v>
   </varray>
  </structure>
  <varray name="forces" >
   <v>      -0.00000000      -0.00000000      -0.00000000 </v>
   <v>       0.00000000       0.00000000       0.00000000 </v>
  </varray>
  <varray name="stress" >
   <v>      -0.03653596      -0.00000000       0.00000000 </v>
   <v>       0.00000000      -0.03653596       0.00000000 </v>
   <v>      -0.00000000       0.00000000      -0.03653596 </v>
  </varray>
  <energy>
   <i name="e_fr_energy">     -9.10675068 </i>
   <i name="e_wo_entrp">     -9.10675068 </i>
   <i name="e_0_energy">     -0.00000000 </i>
  </energy>
  <time name="totalsc">    3.50    3.50</time>
  <eigenvalues>
   <array>
    <dimension dim="1">band</dimension>
    <dimension dim="2">kpoint</dimension>
    <dimension dim="3">spin</dimension>
    <field>eigene</field>
    <field>occ</field>
    <set>
     <set comment="spin 1">
      <set comment="kpoint 1">
       <r>   -9.1974    1.0000 </r>
       <r>    2.9326    1.0000 </r>
       <r>    2.9326    1.0000 </r>
       <r>    2.9326    1.0000 </r>
       <r>    4.4486    0.0000 </r>
       <r>    6.8737    0.0000 </r>
       <r>    6.8737    0.0000 </r>
       <r>    6.8737    0.0000 </r>
      </set>
      <set comment="kpoint 2">
       <r>   -9.0564    1.0000 </r>
       <r>    1.5539    1.0000 </r>
       <r>    2.7607    1.0000 </r>
       <r>    2.7607    1.0000 </r>
       <r>    5.1426    0.0000 </r>
       <r>    7.1428    0.0000 </r>
       <r>    7.1428    0.0000 </r>
       <r>    7.2209    0.0000 </r>
      </set>
      <set comment="kpoint 3">
       <r>   -8.6492    1.0000 </r>
       <r>   -0.3799    1.0000 </r>
       <r>    2.4061    1.0000 </r>
       <r>    2.4061    1.0000 </r>
       <r>    5.0642    0.0000 </r>
       <r>    7.6156    0.0000 </r>
       <r>    7.6156    0.0000 </r>
       <r>    8.6581    0.0000 </r>
      </set>
      <set comment="kpoint 4">
       <r>   -8.0475    1.0000 </r>
       <r>   -2.1004    1.0000 </r>
       <r>    2.0884    1.0000 </r>
       <r>    2.0884    1.0000 </r>
       <r>    4.7356    0.0000 </r>
       <r>    7.7750    0.0000 </r>
       <r>    7.7750    0.0000 </r>
       <r>   10.3293    0.0000 </r>
      </set>
      <set comment="kpoint 5">
       <r>   -7.4905    1.0000 </r>
       <r>   -3.2393    1.0000 </r>
       <r>    1.9122    1.0000 </r>
       <r>    1.9122    1.0000 </r>
       <r>    4.5399    0.0000 </r>
       <r>    7.7122    0.0000 </r>
       <r>    7.7122    0.0000 </r>
       <r>   11.0992    0.0000 </r>
      </set>
      <set comment="kpoint 6">
       <r>   -9.0089    1.0000 </r>
       <r>    1.5787    1.0000 </r>
       <r>    2.4395    1.0000 </r>
       <r>    2.4395    1.0000 </r>
       <r>    5.6336    0.0000 </r>
       <r>    6.4314    0.0000 </r>
       <r>    7.5970    0.0000 </r>
       <r>    7.5970    0.0000 </r>
      </set>
      <set comment="kpoint 7">
       <r>   -8.6886    1.0000 </r>
       <r>    0.1009    1.0000 </r>
       <r>    2.0283    1.0000 </r>
       <r>    2.0921    1.0000 </r>
       <r>    5.8046    0.0000 </r>
       <r>    6.6803    0.0000 </r>
       <r>    8.2344    0.0000 </r>
       <r>    8.4199    0.0000 </r>
      </set>
      <set comment="kpoint 8">
       <r>   -8.1427    1.0000 </r>
       <r>   -1.5859    1.0000 </r>
       <r>    1.6279    1.0000 </r>
       <r>    1.7296    1.0000 </r>
       <r>    5.5720    0.0000 </r>
       <r>    7.2734    0.0000 </r>
       <r>    8.4913    0.0000 </r>
       <r>    9.1053    0.0000 </r>
      </set>
      <set comment="kpoint 9">
       <r>   -7.5329    1.0000 </r>
       <r>   -2.9110    1.0000 </r>
       <r>    1.2224    1.0000 </r>
       <r>    1.6259    1.0000 </r>
       <r>    5.3629    0.0000 </r>
       <r>    7.4232    0.0000 </r>
       <r>    8.3291    0.0000 </r>
       <r>   10.3512    0.0000 </r>
      </set>
      <set comment="kpoint 10">
       <r>   -7.3014    1.0000 </r>
       <r>   -3.3249    1.0000 </r>
       <r>    0.9942    1.0000 </r>
       <r>    1.7323    1.0000 </r>
       <r>    5.3097    0.0000 </r>
       <r>    7.5159    0.0000 </r>
       <r>    8.1141    0.0000 </r>
       <r>   11.2184    0.0000 </r>
      </set>
      <set comment="kpoint 11">
       <r>   -7.7264    1.0000 </r>
       <r>   -2.5307    1.0000 </r>
       <r>    0.9966    1.0000 </r>
       <r>    2.0201    1.0000 </r>
       <r>    5.4323    0.0000 </r>
       <r>    7.7480    0.0000 </r>
       <r>    7.9671    0.0000 </r>
       <r>   10.3022    0.0000 </r>
      </set>
      <set comment="kpoint 12">
       <r>   -8.3464    1.0000 </r>
       <r>   -1.0488    1.0000 </r>
       <r>    1.2697    1.0000 </r>
       <r>    2.4111    1.0000 </r>
       <r>    5.6740    0.0000 </r>
       <r>    7.7021    0.0000 </r>
       <r>    7.7705    0.0000 </r>
       <r>    8.9856    0.0000 </r>
      </set>
      <set comment="kpoint 13">
       <r>   -8.8257    1.0000 </r>
       <r>    0.5357    1.0000 </r>
       <r>    1.9050    1.0000 </r>
       <r>    2.7394    1.0000 </r>
       <r>    5.6755    0.0000 </r>
       <r>    7.1325    0.0000 </r>
       <r>    7.2543    0.0000 </r>
       <r>    8.2561    0.0000 </r>
      </set>
      <set comment="kpoint 14">
       <r>   -8.4591    1.0000 </r>
       <r>   -0.2618    1.0000 </r>
       <r>    1.5669    1.0000 </r>
       <r>    1.5669    1.0000 </r>
       <r>    5.3653    0.0000 </r>
       <r>    6.6955    0.0000 </r>
       <r>    9.1525    0.0000 </r>
       <r>    9.1525    0.0000 </r>
      </set>
      <set comment="kpoint 15">
       <r>   -7.9921    1.0000 </r>
       <r>   -1.4116    1.0000 </r>
       <r>    1.0046    1.0000 </r>
       <r>    1.2361    1.0000 </r>
       <r>    5.4170    0.0000 </r>
       <r>    6.6863    0.0000 </r>
       <r>    9.2106    0.0000 </r>
       <r>    9.7490    0.0000 </r>
      </set>
      <set comment="kpoint 16">
       <r>   -7.4000    1.0000 </r>
       <r>   -2.5905    1.0000 </r>
       <r>    0.3187    1.0000 </r>
       <r>    1.1251    1.0000 </r>
       <r>    5.5223    0.0000 </r>
       <r>    7.5134    0.0000 </r>
       <r>    9.0870    0.0000 </r>
       <r>    9.6878    0.0000 </r>
      </set>
      <set comment="kpoint 17">
       <r>   -7.0152    1.0000 </r>
       <r>   -3.2222    1.0000 </r>
       <r>   -0.1678    1.0000 </r>
       <r>    1.2537    1.0000 </r>
       <r>    5.6127    0.0000 </r>
       <r>    8.0911    0.0000 </r>
       <r>    9.3505    0.0000 </r>
       <r>   10.0557    0.0000 </r>
      </set>
      <set comment="kpoint 18">
       <r>   -7.2497    1.0000 </r>
       <r>   -2.8407    1.0000 </r>
       <r>   -0.3018    1.0000 </r>
       <r>    1.5923    1.0000 </r>
       <r>    5.8744    0.0000 </r>
       <r>    8.2496    0.0000 </r>
       <r>    8.9620    0.0000 </r>
       <r>   10.1289    0.0000 </r>
      </set>
      <set comment="kpoint 19">
       <r>   -7.8284    1.0000 </r>
       <r>   -1.8804    1.0000 </r>
       <r>    0.1135    1.0000 </r>
       <r>    2.0468    1.0000 </r>
       <r>    6.1267    0.0000 </r>
       <r>    8.3113    0.0000 </r>
       <r>    8.3629    0.0000 </r>
       <r>    8.8046    0.0000 </r>
      </set>
      <set comment="kpoint 20">
       <r>   -7.6161    1.0000 </r>
       <r>   -2.0063    1.0000 </r>
       <r>    0.8548    1.0000 </r>
       <r>    0.8548    1.0000 </r>
       <r>    4.7792    0.0000 </r>
       <r>    5.8757    0.0000 </r>
       <r>   10.9872    0.0000 </r>
       <r>   10.9872    0.0000 </r>
      </set>
      <set comment="kpoint 21">
       <r>   -7.1045    1.0000 </r>
       <r>   -2.8107    1.0000 </r>
       <r>    0.2498    1.0000 </r>
       <r>    0.6950    1.0000 </r>
       <r>    4.9723    0.0000 </r>
       <r>    5.9052    0.0000 </r>
       <r>   10.9121    0.0000 </r>
       <r>   11.3948    0.0000 </r>
      </set>
      <set comment="kpoint 22">
       <r>   -6.7120    1.0000 </r>
       <r>   -3.2968    1.0000 </r>
       <r>   -0.5363    1.0000 </r>
       <r>    0.7882    1.0000 </r>
       <r>    5.1517    0.0000 </r>
       <r>    7.2747    0.0000 </r>
       <r>   10.6646    0.0000 </r>
       <r>   11.0158    0.0000 </r>
      </set>
      <set comment="kpoint 23">
       <r>   -6.7965    1.0000 </r>
       <r>   -3.1812    1.0000 </r>
       <r>   -0.8633    1.0000 </r>
       <r>    1.1150    1.0000 </r>
       <r>    5.4828    0.0000 </r>
       <r>    8.7511    0.0000 </r>
       <r>   10.1899    0.0000 </r>
       <r>   10.5642    0.0000 </r>
      </set>
      <set comment="kpoint 24">
       <r>   -6.7462    1.0000 </r>
       <r>   -3.3419    1.0000 </r>
       <r>    0.4729    1.0000 </r>
       <r>    0.4729    1.0000 </r>
       <r>    4.6259    0.0000 </r>
       <r>    5.0197    0.0000 </r>
       <r>   12.7973    0.0000 </r>
       <r>   12.7973    0.0000 </r>
      </set>
      <set comment="kpoint 25">
       <r>   -6.5641    1.0000 </r>
       <r>   -3.5314    1.0000 </r>
       <r>   -0.0096    1.0000 </r>
       <r>    0.5062    1.0000 </r>
       <r>    4.8378    0.0000 </r>
       <r>    5.5437    0.0000 </r>
       <r>   12.3650    0.0000 </r>
       <r>   12.5469    0.0000 </r>
      </set>
      <set comment="kpoint 26">
       <r>   -8.2943    1.0000 </r>
       <r>   -0.8799    1.0000 </r>
       <r>    1.0055    1.0000 </r>
       <r>    1.9635    1.0000 </r>
       <r>    6.1250    0.0000 </r>
       <r>    6.8160    0.0000 </r>
       <r>    8.4911    0.0000 </r>
       <r>    8.9477    0.0000 </r>
      </set>
      <set comment="kpoint 27">
       <r>   -7.7157    1.0000 </r>
       <r>   -2.1389    1.0000 </r>
       <r>    0.3930    1.0000 </r>
       <r>    1.5969    1.0000 </r>
       <r>    6.2021    0.0000 </r>
       <r>    7.3260    0.0000 </r>
       <r>    8.4815    0.0000 </r>
       <r>    9.5193    0.0000 </r>
      </set>
      <set comment="kpoint 28">
       <r>   -7.1866    1.0000 </r>
       <r>   -3.1036    1.0000 </r>
       <r>    0.1597    1.0000 </r>
       <r>    1.3195    1.0000 </r>
       <r>    6.1197    0.0000 </r>
       <r>    7.2996    0.0000 </r>
       <r>    9.0311    0.0000 </r>
       <r>   10.3558    0.0000 </r>
      </set>
      <set comment="kpoint 29">
       <r>   -7.4931    1.0000 </r>
       <r>   -2.2394    1.0000 </r>
       <r>    0.3227    1.0000 </r>
       <r>    0.9238    1.0000 </r>
       <r>    5.7049    0.0000 </r>
       <r>    6.5222    0.0000 </r>
       <r>    9.1306    0.0000 </r>
       <r>   10.9364    0.0000 </r>
      </set>
      <set comment="kpoint 30">
       <r>   -6.9649    1.0000 </r>
       <r>   -3.0005    1.0000 </r>
       <r>   -0.2853    1.0000 </r>
       <r>    0.6636    1.0000 </r>
       <r>    6.0333    0.0000 </r>
       <r>    7.4417    0.0000 </r>
       <r>    8.8253    0.0000 </r>
       <r>   11.1992    0.0000 </r>
      </set>
      <set comment="kpoint 31">
       <r>   -6.7955    1.0000 </r>
       <r>   -3.2145    1.0000 </r>
       <r>   -0.6370    1.0000 </r>
       <r>    0.7608    1.0000 </r>
       <r>    6.2535    0.0000 </r>
       <r>    8.0835    0.0000 </r>
       <r>    9.2457    0.0000 </r>
       <r>   10.7380    0.0000 </r>
      </set>
      <set comment="kpoint 32">
       <r>   -7.1714    1.0000 </r>
       <r>   -2.7431    1.0000 </r>
       <r>   -0.4782    1.0000 </r>
       <r>    1.1446    1.0000 </r>
       <r>    6.5568    0.0000 </r>
       <r>    7.9943    0.0000 </r>
       <r>    8.2316    0.0000 </r>
       <r>   10.7908    0.0000 </r>
      </set>
      <set comment="kpoint 33">
       <r>   -6.6992    1.0000 </r>
       <r>   -3.3106    1.0000 </r>
       <r>    0.0335    1.0000 </r>
       <r>    0.2392    1.0000 </r>
       <r>    5.5265    0.0000 </r>
       <r>    5.8360    0.0000 </r>
       <r>   10.7607    0.0000 </r>
       <r>   12.2529    0.0000 </r>
      </set>
      <set comment="kpoint 34">
       <r>   -6.5600    1.0000 </r>
       <r>   -3.3999    1.0000 </r>
       <r>   -0.5719    1.0000 </r>
       <r>    0.3191    1.0000 </r>
       <r>    5.8640    0.0000 </r>
       <r>    7.2903    0.0000 </r>
       <r>   10.3029    0.0000 </r>
       <r>   10.5461    0.0000 </r>
      </set>
      <set comment="kpoint 35">
       <r>   -6.6076    1.0000 </r>
       <r>   -3.2948    1.0000 </r>
       <r>   -0.5471    1.0000 </r>
       <r>    0.0659    1.0000 </r>
       <r>    7.2496    0.0000 </r>
       <r>    7.6071    0.0000 </r>
       <r>    8.5504    0.0000 </r>
       <r>   10.1836    0.0000 </r>
      </set>
     </set>
    </set>
   </array>
  </eigenvalues>
  <separator name="orbital magnetization" >
   <v name="MAGDIPOLOUT">      0.00000000      0.00000000      0.00000000</v>
  </separator>
  <dos>
   <i name="efermi">      3.00965274 </i>
   <total>
    <array>
     <dimension dim="1">gridpoints</dimension>
     <dimension dim="2">spin</dimension>
     <field>energy</field>
     <field>total</field>
     <field>integrated</field>
     <set>
      <set comment="spin 1">
       <r>   -10.2972     0.0000     0.0000 </r>
       <r>    -7.8777     0.0000     0.4636 </r>
       <r>    -5.4583     0.0000     2.0000 </r>
       <r>    -3.0389     0.0544     2.7627 </r>
       <r>    -0.6195     0.0541     3.9854 </r>
       <r>     1.7999     0.0544     7.3553 </r>
       <r>     4.2194     0.0000     8.0000 </r>
       <r>     6.6388     0.0000    10.2140 </r>
       <r>     9.0582     0.0816    13.5528 </r>
       <r>    11.4776     0.0000    15.8354 </r>
       <r>    13.8970     0.0000    16.0000 </r>
      </set>
     </set>
    </array>
   </total>
   <partial>
    <array>
     <dimension dim="1">gridpoints</dimension>
     <dimension dim="2">spin</dimension>
     <dimension dim="3">ion</dimension>
     <field>energy</field>
     <field>  s  </field>
     <field>  p  </field>
     <field>  d  </field>
     <set>
      <set comment="ion 1">
       <set comment="spin 1">
        <r>   -10.2972     0.0000     0.0000     0.0000 </r>
        <r>    -7.8777     0.0000     0.0000     0.0000 </r>
        <r>    -5.4583     0.0000     0.0000     0.0000 </r>
        <r>    -3.0389     0.0199     0.0047     0.0002 </r>
        <r>    -0.6195     0.0012     0.0129     0.0007 </r>
        <r>     1.7999     0.0000     0.0127     0.0020 </r>
        <r>     4.2194     0.0000     0.0000     0.0000 </r>
        <r>     6.6388     0.0000     0.0000     0.0000 </r>
        <r>     9.0582     0.0025     0.0164     0.0044 </r>
        <r>    11.4776     0.0000     0.0000     0.0000 </r>
        <r>    13.8970     0.0000     0.0000     0.0000 </r>
       </set>
      </set>
      <set comment="ion 2">
       <set comment="spin 1">
        <r>   -10.2972     0.0000     0.0000     0.0000 </r>
        <r>    -7.8777     0.0000     0.0000     0.0000 </r>
        <r>    -5.4583     0.0000     0.0000     0.0000 </r>
        <r>    -3.0389     0.0024     0.0079     0.0000 </r>
        <r>    -0.6195     0.0004     0.0126     0.0000 </r>
        <r>     1.7999     0.0000     0.0188     0.0000 </r>
        <r>     4.2194     0.0000     0.0000     0.0000 </r>
        <r>     6.6388     0.0000     0.0000     0.0000 </r>
        <r>     9.0582     0.0013     0.0135     0.0000 </r>
        <r>    11.4776     0.0000     0.0000     0.0000 </r>
        <r>    13.8970     0.0000     0.0000     0.0000 </r>
       </set>
      </set>
     </set>
    </array>
   </partial>
  </dos>
  <projected>
   <eigenvalues>
    <array>
     <dimension dim="1">band</dimension>
     <dimension dim="2">kpoint</dimension>
     <dimension dim="3">spin</dimension>
     <field>eigene</field>
     <field>occ</field>
     <set>
      <set comment="spin 1">
       <set comment="kpoint 1">
        <r>   -9.1974    1.0000 </r>
        <r>    2.9326    1.0000 </r>
        <r>    2.9326    1.0000 </r>
        <r>    2.9326    1.0000 </r>
        <r>    4.4486    0.0000 </r>
        <r>    6.8737    0.0000 </r>
        <r>    6.8737    0.0000 </r>
        <r>    6.8737    0.0000 </r>
       </set>
       <set comment="kpoint 2">
        <r>   -9.0564    1.0000 </r>
        <r>    1.5539    1.0000 </r>
        <r>    2.7607    1.0000 </r>
        <r>    2.7607    1.0000 </r>
        <r>    5.1426    0.0000 </r>
        <r>    7.1428    0.0000 </r>
        <r>    7.1428    0.0000 </r>
        <r>    7.2209    0.0000 </r>
       </set>
       <set comment="kpoint 3">
        <r>   -8.6492    1.0000 </r>
        <r>   -0.3799    1.0000 </r>
        <r>    2.4061    1.0000 </r>
        <r>    2.4061    1.0000 </r>
        <r>    5.0642    0.0000 </r>
        <r>    7.6156    0.0000 </r>
        <r>    7.6156    0.0000 </r>
        <r>    8.6581    0.0000 </r>
       </set>
       <set comment="kpoint 4">
        <r>   -8.0475    1.0000 </r>
        <r>   -2.1004    1.0000 </r>
        <r>    2.0884    1.0000 </r>
        <r>    2.0884    1.0000 </r>
        <r>    4.7356    0.0000 </r>
        <r>    7.7750    0.0000 </r>
        <r>    7.7750    0.0000 </r>
        <r>   10.3293    0.0000 </r>
       </set>
       <set comment="kpoint 5">
        <r>   -7.4905    1.0000 </r>
        <r>   -3.2393    1.0000 </r>
        <r>    1.9122    1.0000 </r>
        <r>    1.9122    1.0000 </r>
        <r>    4.5399    0.0000 </r>
        <r>    7.7122    0.0000 </r>
        <r>    7.7122    0.0000 </r>
        <r>   11.0992    0.0000 </r>
       </set>
       <set comment="kpoint 6">
        <r>   -9.0089    1.0000 </r>
        <r>    1.5787    1.0000 </r>
        <r>    2.4395    1.0000 </r>
        <r>    2.4395    1.0000 </r>
        <r>    5.6336    0.0000 </r>
        <r>    6.4314    0.0000 </r>
        <r>    7.5970    0.0000 </r>
        <r>    7.5970    0.0000 </r>
       </set>
       <set comment="kpoint 7">
        <r>   -8.6886    1.0000 </r>
        <r>    0.1009    1.0000 </r>
        <r>    2.0283    1.0000 </r>
        <r>    2.0921    1.0000 </r>
        <r>    5.8046    0.0000 </r>
        <r>    6.6803    0.0000 </r>
        <r>    8.2344    0.0000 </r>
        <r>    8.4199    0.0000 </r>
       </set>
       <set comment="kpoint 8">
        <r>   -8.1427    1.0000 </r>
        <r>   -1.5859    1.0000 </r>
        <r>    1.6279    1.0000 </r>
        <r>    1.7296    1.0000 </r>
        <r>    5.5720    0.0000 </r>
        <r>    7.2734    0.0000 </r>
        <r>    8.4913    0.0000 </r>
        <r>    9.1053    0.0000 </r>
       </set>
       <set comment="kpoint 9">
        <r>   -7.5329    1.0000 </r>
        <r>   -2.9110    1.0000 </r>
        <r>    1.2224    1.0000 </r>
        <r>    1.6259    1.0000 </r>
        <r>    5.3629    0.0000 </r>
        <r>    7.4232    0.0000 </r>
        <r>    8.3291    0.0000 </r>
        <r>   10.3512    0.0000 </r>
       </set>
       <set comment="kpoint 10">
        <r>   -7.3014    1.0000 </r>
        <r>   -3.3249    1.0000 </r>
        <r>    0.9942    1.0000 </r>
        <r>    1.7323    1.0000 </r>
        <r>    5.3097    0.0000 </r>
        <r>    7.5159    0.0000 </r>
        <r>    8.1141    0.0000 </r>
        <r>   11.2184    0.0000 </r>
       </set>
       <set comment="kpoint 11">
        <r>   -7.7264    1.0000 </r>
        <r>   -2.5307    1.0000 </r>
        <r>    0.9966    1.0000 </r>
        <r>    2.0201    1.0000 </r>
        <r>    5.4323    0.0000 </r>
        <r>    7.7480    0.0000 </r>
        <r>    7.9671    0.0000 </r>
        <r>   10.3022    0.0000 </r>
       </set>
       <set comment="kpoint 12">
        <r>   -8.3464    1.0000 </r>
        <r>   -1.0488    1.0000 </r>
        <r>    1.2697    1.0000 </r>
        <r>    2.4111    1.0000 </r>
        <r>    5.6740    0.0000 </r>
        <r>    7.7021    0.0000 </r>
        <r>    7.7705    0.0000 </r>
        <r>    8.9856    0.0000 </r>
       </set>
       <set comment="kpoint 13">
        <r>   -8.8257    1.0000 </r>
        <r>    0.5357    1.0000 </r>
        <r>    1.9050    1.0000 </r>
        <r>    2.7394    1.0000 </r>
        <r>    5.6755    0.0000 </r>
        <r>    7.1325    0.0000 </r>
        <r>    7.2543    0.0000 </r>
        <r>    8.2561    0.0000 </r>
       </set>
       <set comment="kpoint 14">
        <r>   -8.4591    1.0000 </r>
        <r>   -0.2618    1.0000 </r>
        <r>    1.5669    1.0000 </r>
        <r>    1.5669    1.0000 </r>
        <r>    5.3653    0.0000 </r>
        <r>    6.6955    0.0000 </r>
        <r>    9.1525    0.0000 </r>
        <r>    9.1525    0.0000 </r>
       </set>
       <set comment="kpoint 15">
        <r>   -7.9921    1.0000 </r>
        <r>   -1.4116    1.0000 </r>
        <r>    1.0046    1.0000 </r>
        <r>    1.2361    1.0000 </r>
        <r>    5.4170    0.0000 </r>
        <r>    6.6863    0.0000 </r>
        <r>    9.2106    0.0000 </r>
        <r>    9.7490    0.0000 </r>
       </set>
       <set comment="kpoint 16">
        <r>   -7.4000    1.0000 </r>
        <r>   -2.5905    1.0000 </r>
        <r>    0.3187    1.0000 </r>
        <r>    1.1251    1.0000 </r>
        <r>    5.5223    0.0000 </r>
        <r>    7.5134    0.0000 </r>
        <r>    9.0870    0.0000 </r>
        <r>    9.6878    0.0000 </r>
       </set>
       <set comment="kpoint 17">
        <r>   -7.0152    1.0000 </r>
        <r>   -3.2222    1.0000 </r>
        <r>   -0.1678    1.0000 </r>
        <r>    1.2537    1.0000 </r>
        <r>    5.6127    0.0000 </r>
        <r>    8.0911    0.0000 </r>
        <r>    9.3505    0.0000 </r>
        <r>   10.0557    0.0000 </r>
       </set>
       <set comment="kpoint 18">
        <r>   -7.2497    1.0000 </r>
        <r>   -2.8407    1.0000 </r>
        <r>   -0.3018    1.0000 </r>
        <r>    1.5923    1.0000 </r>
        <r>    5.8744    0.0000 </r>
        <r>    8.2496    0.0000 </r>
        <r>    8.9620    0.0000 </r>
        <r>   10.1289    0.0000 </r>
       </set>
       <set comment="kpoint 19">
        <r>   -7.8284    1.0000 </r>
        <r>   -1.8804    1.0000 </r>
        <r>    0.1135    1.0000 </r>
        <r>    2.0468    1.0000 </r>
        <r>    6.1267    0.0000 </r>
        <r>    8.3113    0.0000 </r>
        <r>    8.3629    0.0000 </r>
        <r>    8.8046    0.0000 </r>
       </set>
       <set comment="kpoint 20">
        <r>   -7.6161    1.0000 </r>
        <r>   -2.0063    1.0000 </r>
        <r>    0.8548    1.0000 </r>
        <r>    0.8548    1.0000 </r>
        <r>    4.7792    0.0000 </r>
        <r>    5.8757    0.0000 </r>
        <r>   10.9872    0.0000 </r>
        <r>   10.9872    0.0000 </r>
       </set>
       <set comment="kpoint 21">
        <r>   -7.1045    1.0000 </r>
        <r>   -2.8107    1.0000 </r>
        <r>    0.2498    1.0000 </r>
        <r>    0.6950    1.0000 </r>
        <r>    4.9723    0.0000 </r>
        <r>    5.9052    0.0000 </r>
        <r>   10.9121    0.0000 </r>
        <r>   11.3948    0.0000 </r>
       </set>
       <set comment="kpoint 22">
        <r>   -6.7120    1.0000 </r>
        <r>   -3.2968    1.0000 </r>
        <r>   -0.5363    1.0000 </r>
        <r>    0.7882    1.0000 </r>
        <r>    5.1517    0.0000 </r>
        <r>    7.2747    0.0000 </r>
        <r>   10.6646    0.0000 </r>
        <r>   11.0158    0.0000 </r>
       </set>
       <set comment="kpoint 23">
        <r>   -6.7965    1.0000 </r>
        <r>   -3.1812    1.0000 </r>
        <r>   -0.8633    1.0000 </r>
        <r>    1.1150    1.0000 </r>
        <r>    5.4828    0.0000 </r>
        <r>    8.7511    0.0000 </r>
        <r>   10.1899    0.0000 </r>
        <r>   10.5642    0.0000 </r>
       </set>
       <set comment="kpoint 24">
        <r>   -6.7462    1.0000 </r>
        <r>   -3.3419    1.0000 </r>
        <r>    0.4729    1.0000 </r>
        <r>    0.4729    1.0000 </r>
        <r>    4.6259    0.0000 </r>
        <r>    5.0197    0.0000 </r>
        <r>   12.7973    0.0000 </r>
        <r>   12.7973    0.0000 </r>
       </set>
       <set comment="kpoint 25">
        <r>   -6.5641    1.0000 </r>
        <r>   -3.5314    1.0000 </r>
        <r>   -0.0096    1.0000 </r>
        <r>    0.5062    1.0000 </r>
        <r>    4.8378    0.0000 </r>
        <r>    5.5437    0.0000 </r>
        <r>   12.3650    0.0000 </r>
        <r>   12.5469    0.0000 </r>
       </set>
       <set comment="kpoint 26">
        <r>   -8.2943    1.0000 </r>
        <r>   -0.8799    1.0000 </r>
        <r>    1.0055    1.0000 </r>
        <r>    1.9635    1.0000 </r>
        <r>    6.1250    0.0000 </r>
        <r>    6.8160    0.0000 </r>
        <r>    8.4911    0.0000 </r>
        <r>    8.9477    0.0000 </r>
       </set>
       <set comment="kpoint 27">
        <r>   -7.7157    1.0000 </r>
        <r>   -2.1389    1.0000 </r>
        <r>    0.3930    1.0000 </r>
        <r>    1.5969    1.0000 </r>
        <r>    6.2021    0.0000 </r>
        <r>    7.3260    0.0000 </r>
        <r>    8.4815    0.0000 </r>
        <r>    9.5193    0.0000 </r>
       </set>
       <set comment="kpoint 28">
        <r>   -7.1866    1.0000 </r>
        <r>   -3.1036    1.0000 </r>
        <r>    0.1597    1.0000 </r>
        <r>    1.3195    1.0000 </r>
        <r>    6.1197    0.0000 </r>
        <r>    7.2996    0.0000 </r>
        <r>    9.0311    0.0000 </r>
        <r>   10.3558    0.0000 </r>
       </set>
       <set comment="kpoint 29">
        <r>   -7.4931    1.0000 </r>
        <r>   -2.2394    1.0000 </r>
        <r>    0.3227    1.0000 </r>
        <r>    0.9238    1.0000 </r>
        <r>    5.7049    0.0000 </r>
        <r>    6.5222    0.0000 </r>
        <r>    9.1306    0.0000 </r>
        <r>   10.9364    0.0000 </r>
       </set>
       <set comment="kpoint 30">
        <r>   -6.9649    1.0000 </r>
        <r>   -3.0005    1.0000 </r>
        <r>   -0.2853    1.0000 </r>
        <r>    0.6636    1.0000 </r>
        <r>    6.0333    0.0000 </r>
        <r>    7.4417    0.0000 </r>
        <r>    8.8253    0.0000 </r>
        <r>   11.1992    0.0000 </r>
       </set>
       <set comment="kpoint 31">
        <r>   -6.7955    1.0000 </r>
        <r>   -3.2145    1.0000 </r>
        <r>   -0.6370    1.0000 </r>
        <r>    0.7608    1.0000 </r>
        <r>    6.2535    0.0000 </r>
        <r>    8.0835    0.0000 </r>
        <r>    9.2457    0.0000 </r>
        <r>   10.7380    0.0000 </r>
       </set>
       <set comment="kpoint 32">
        <r>   -7.1714    1.0000 </r>
        <r>   -2.7431    1.0000 </r>
        <r>   -0.4782    1.0000 </r>
        <r>    1.1446    1.0000 </r>
        <r>    6.5568    0.0000 </r>
        <r>    7.9943    0.0000 </r>
        <r>    8.2316    0.0000 </r>
        <r>   10.7908    0.0000 </r>
       </set>
       <set comment="kpoint 33">
        <r>   -6.6992    1.0000 </r>
        <r>   -3.3106    1.0000 </r>
        <r>    0.0335    1.0000 </r>
        <r>    0.2392    1.0000 </r>
        <r>    5.5265    0.0000 </r>
        <r>    5.8360    0.0000 </r>
        <r>   10.7607    0.0000 </r>
        <r>   12.2529    0.0000 </r>
       </set>
       <set comment="kpoint 34">
        <r>   -6.5600    1.0000 </r>
        <r>   -3.3999    1.0000 </r>
        <r>   -0.5719    1.0000 </r>
        <r>    0.3191    1.0000 </r>
        <r>    5.8640    0.0000 </r>
        <r>    7.2903    0.0000 </r>
        <r>   10.3029    0.0000 </r>
        <r>   10.5461    0.0000 </r>
       </set>
       <set comment="kpoint 35">
        <r>   -6.6076    1.0000 </r>
        <r>   -3.2948    1.0000 </r>
        <r>   -0.5471    1.0000 </r>
        <r>    0.0659    1.0000 </r>
        <r>    7.2496    0.0000 </r>
        <r>    7.6071    0.0000 </r>
        <r>    8.5504    0.0000 </r>
        <r>   10.1836    0.0000 </r>
       </set>
      </set>
     </set>
    </array>
   </eigenvalues>
   <array>
    <dimension dim="1">ion</dimension>
    <dimension dim="2">band</dimension>
    <dimension dim="3">kpoint</dimension>
    <dimension dim="4">spin</dimension>
    <field>  s  </field>
    <field>  p  </field>
    <field>  d  </field>
    <set>
     <set comment="spin1">
      <set comment="kpoint 1">
       <set comment="band 1">
        <r>  0.2778  0.0000  0.0000 </r>
        <r>  0.3445  0.0000  0.0000 </r>
       </set>
       <set comment="band 2">
        <r>  0.0000  0.1225  0.0836 </r>
        <r>  0.0000  0.4269  0.0000 </r>
       </set>
       <set comment="band 3">
        <r>  0.0000  0.1225  0.0836 </r>
        <r>  0.0000  0.4269  0.0000 </r>
       </set>
       <set comment="band 4">
        <r>  0.0000  0.1225  0.0836 </r>
        <r>  0.0000  0.4269  0.0000 </r>
       </set>
       <set comment="band 5">
        <r>  0.3989  0.0000  0.0000 </r>
        <r>  0.3611  0.0000  0.0000 </r>
       </set>
       <set comment="band 6">
        <r>  0.0000  0.4805  0.0081 </r>
        <r>  0.0000  0.0322  0.0000 </r>
       </set>
       <set comment="band 7">
        <r>  0.0000  0.4805  0.0081 </r>
        <r>  0.0000  0.0322  0.0000 </r>
       </set>
       <set comment="band 8">
        <r>  0.0000  0.4805  0.0081 </r>
        <r>  0.0000  0.0322  0.0000 </r>
       </set>
      </set>
      <set comment="kpoint 2">
       <set comment="band 1">
        <r>  0.2701  0.0048  0.0005 </r>
        <r>  0.3477  0.0011  0.0000 </r>
       </set>
       <set comment="band 2">
        <r>  0.1228  0.1216  0.0516 </r>
        <r>  0.0952  0.2637  0.0000 </r>
       </set>
       <set comment="band 3">
        <r>  0.0000  0.1461  0.0745 </r>
        <r>  0.0000  0.4094  0.0000 </r>
       </set>
       <set comment="band 4">
        <r>  0.0000  0.1461  0.0745 </r>
        <r>  0.0000  0.4094  0.0000 </r>
       </set>
       <set comment="band 5">
        <r>  0.2912  0.0684  0.0090 </r>
        <r>  0.2264  0.0984  0.0000 </r>
       </set>
       <set comment="band 6">
        <r>  0.0000  0.4587  0.0157 </r>
        <r>  0.0000  0.0495  0.0000 </r>
       </set>
       <set comment="band 7">
        <r>  0.0000  0.4587  0.0157 </r>
        <r>  0.0000  0.0495  0.0000 </r>
       </set>
       <set comment="band 8">
        <r>  0.0292  0.3354  0.0276 </r>
        <r>  0.0363  0.0964  0.0000 </r>
       </set>
      </set>
      <set comment="kpoint 3">
       <set comment="band 1">
        <r>  0.2466  0.0182  0.0023 </r>
        <r>  0.3594  0.0037  0.0000 </r>
       </set>
       <set comment="band 2">
        <r>  0.1826  0.1309  0.0304 </r>
        <r>  0.1050  0.1947  0.0000 </r>
       </set>
       <set comment="band 3">
        <r>  0.0000  0.1857  0.0582 </r>
        <r>  0.0000  0.3830  0.0000 </r>
       </set>
       <set comment="band 4">
        <r>  0.0000  0.1857  0.0582 </r>
        <r>  0.0000  0.3830  0.0000 </r>
       </set>
       <set comment="band 5">
        <r>  0.2664  0.1146  0.0129 </r>
        <r>  0.1570  0.0599  0.0000 </r>
       </set>
       <set comment="band 6">
        <r>  0.0000  0.4066  0.0339 </r>
        <r>  0.0000  0.0690  0.0000 </r>
       </set>
       <set comment="band 7">
        <r>  0.0000  0.4066  0.0339 </r>
        <r>  0.0000  0.0690  0.0000 </r>
       </set>
       <set comment="band 8">
        <r>  0.0628  0.1694  0.0350 </r>
        <r>  0.0740  0.2092  0.0000 </r>
       </set>
      </set>
      <set comment="kpoint 4">
       <set comment="band 1">
        <r>  0.2064  0.0370  0.0059 </r>
        <r>  0.3864  0.0055  0.0000 </r>
       </set>
       <set comment="band 2">
        <r>  0.2389  0.1263  0.0140 </r>
        <r>  0.0836  0.1620  0.0000 </r>
       </set>
       <set comment="band 3">
        <r>  0.0000  0.2147  0.0452 </r>
        <r>  0.0000  0.3671  0.0000 </r>
       </set>
       <set comment="band 4">
        <r>  0.0000  0.2147  0.0452 </r>
        <r>  0.0000  0.3671  0.0000 </r>
       </set>
       <set comment="band 5">
        <r>  0.2819  0.0847  0.0232 </r>
        <r>  0.1487  0.0450  0.0000 </r>
       </set>
       <set comment="band 6">
        <r>  0.0000  0.3318  0.0603 </r>
        <r>  0.0000  0.0646  0.0000 </r>
       </set>
       <set comment="band 7">
        <r>  0.0000  0.3318  0.0603 </r>
        <r>  0.0000  0.0646  0.0000 </r>
       </set>
       <set comment="band 8">
        <r>  0.0323  0.1218  0.0379 </r>
        <r>  0.0439  0.2710  0.0000 </r>
       </set>
      </set>
      <set comment="kpoint 5">
       <set comment="band 1">
        <r>  0.1574  0.0537  0.0111 </r>
        <r>  0.4301  0.0031  0.0000 </r>
       </set>
       <set comment="band 2">
        <r>  0.2953  0.1160  0.0023 </r>
        <r>  0.0417  0.1512  0.0000 </r>
       </set>
       <set comment="band 3">
        <r>  0.0000  0.2290  0.0384 </r>
        <r>  0.0000  0.3605  0.0000 </r>
       </set>
       <set comment="band 4">
        <r>  0.0000  0.2290  0.0384 </r>
        <r>  0.0000  0.3605  0.0000 </r>
       </set>
       <set comment="band 5">
        <r>  0.2940  0.0630  0.0292 </r>
        <r>  0.1500  0.0399  0.0000 </r>
       </set>
       <set comment="band 6">
        <r>  0.0000  0.2865  0.0761 </r>
        <r>  0.0000  0.0562  0.0000 </r>
       </set>
       <set comment="band 7">
        <r>  0.0000  0.2865  0.0761 </r>
        <r>  0.0000  0.0562  0.0000 </r>
       </set>
       <set comment="band 8">
        <r>  0.0001  0.0722  0.0582 </r>
        <r>  0.0026  0.1894  0.0000 </r>
       </set>
      </set>
      <set comment="kpoint 6">
       <set comment="band 1">
        <r>  0.2674  0.0065  0.0007 </r>
        <r>  0.3488  0.0015  0.0000 </r>
       </set>
       <set comment="band 2">
        <r>  0.1632  0.0889  0.0549 </r>
        <r>  0.1256  0.2496  0.0000 </r>
       </set>
       <set comment="band 3">
        <r>  0.0000  0.1753  0.0630 </r>
        <r>  0.0000  0.3784  0.0000 </r>
       </set>
       <set comment="band 4">
        <r>  0.0000  0.1753  0.0630 </r>
        <r>  0.0000  0.3784  0.0000 </r>
       </set>
       <set comment="band 5">
        <r>  0.2887  0.0000  0.0272 </r>
        <r>  0.1670  0.2056  0.0000 </r>
       </set>
       <set comment="band 6">
        <r>  0.0004  0.4337  0.0048 </r>
        <r>  0.0608  0.0006  0.0000 </r>
       </set>
       <set comment="band 7">
        <r>  0.0000  0.4246  0.0270 </r>
        <r>  0.0000  0.0823  0.0000 </r>
       </set>
       <set comment="band 8">
        <r>  0.0000  0.4246  0.0270 </r>
        <r>  0.0000  0.0823  0.0000 </r>
       </set>
      </set>
      <set comment="kpoint 7">
       <set comment="band 1">
        <r>  0.2487  0.0173  0.0020 </r>
        <r>  0.3577  0.0037  0.0000 </r>
       </set>
       <set comment="band 2">
        <r>  0.1969  0.1104  0.0376 </r>
        <r>  0.1229  0.2013  0.0000 </r>
       </set>
       <set comment="band 3">
        <r>  0.0000  0.2082  0.0486 </r>
        <r>  0.0000  0.3529  0.0000 </r>
       </set>
       <set comment="band 4">
        <r>  0.0250  0.1864  0.0510 </r>
        <r>  0.0130  0.3402  0.0000 </r>
       </set>
       <set comment="band 5">
        <r>  0.2316  0.0733  0.0341 </r>
        <r>  0.0734  0.1749  0.0000 </r>
       </set>
       <set comment="band 6">
        <r>  0.0321  0.3686  0.0082 </r>
        <r>  0.0964  0.0386  0.0000 </r>
       </set>
       <set comment="band 7">
        <r>  0.0000  0.3830  0.0416 </r>
        <r>  0.0000  0.1055  0.0000 </r>
       </set>
       <set comment="band 8">
        <r>  0.0157  0.2793  0.0492 </r>
        <r>  0.0199  0.1367  0.0000 </r>
       </set>
      </set>
      <set comment="kpoint 8">
       <set comment="band 1">
        <r>  0.2128  0.0350  0.0050 </r>
        <r>  0.3796  0.0060  0.0000 </r>
       </set>
       <set comment="band 2">
        <r>  0.2418  0.1174  0.0199 </r>
        <r>  0.1004  0.1669  0.0000 </r>
       </set>
       <set comment="band 3">
        <r>  0.0453  0.1970  0.0397 </r>
        <r>  0.0206  0.3062  0.0000 </r>
       </set>
       <set comment="band 4">
        <r>  0.0000  0.2303  0.0380 </r>
        <r>  0.0000  0.3415  0.0000 </r>
       </set>
       <set comment="band 5">
        <r>  0.2170  0.0878  0.0367 </r>
        <r>  0.0928  0.1406  0.0000 </r>
       </set>
       <set comment="band 6">
        <r>  0.0274  0.3358  0.0324 </r>
        <r>  0.0344  0.0611  0.0000 </r>
       </set>
       <set comment="band 7">
        <r>  0.0000  0.3230  0.0633 </r>
        <r>  0.0000  0.0985  0.0000 </r>
       </set>
       <set comment="band 8">
        <r>  0.0207  0.1319  0.0839 </r>
        <r>  0.0290  0.1386  0.0000 </r>
       </set>
      </set>
      <set comment="kpoint 9">
       <set comment="band 1">
        <r>  0.1613  0.0542  0.0101 </r>
        <r>  0.4214  0.0049  0.0000 </r>
       </set>
       <set comment="band 2">
        <r>  0.2994  0.1098  0.0060 </r>
        <r>  0.0581  0.1512  0.0000 </r>
       </set>
       <set comment="band 3">
        <r>  0.0538  0.2056  0.0321 </r>
        <r>  0.0235  0.2874  0.0000 </r>
       </set>
       <set comment="band 4">
        <r>  0.0000  0.2403  0.0329 </r>
        <r>  0.0000  0.3410  0.0000 </r>
       </set>
       <set comment="band 5">
        <r>  0.2258  0.0839  0.0382 </r>
        <r>  0.1037  0.1217  0.0000 </r>
       </set>
       <set comment="band 6">
        <r>  0.0145  0.2543  0.0637 </r>
        <r>  0.0121  0.0633  0.0000 </r>
       </set>
       <set comment="band 7">
        <r>  0.0000  0.2780  0.0788 </r>
        <r>  0.0000  0.0801  0.0000 </r>
       </set>
       <set comment="band 8">
        <r>  0.0170  0.1388  0.0786 </r>
        <r>  0.0192  0.1795  0.0000 </r>
       </set>
      </set>
      <set comment="kpoint 10">
       <set comment="band 1">
        <r>  0.1359  0.0614  0.0129 </r>
        <r>  0.4460  0.0026  0.0000 </r>
       </set>
       <set comment="band 2">
        <r>  0.3263  0.1053  0.0011 </r>
        <r>  0.0334  0.1494  0.0000 </r>
       </set>
       <set comment="band 3">
        <r>  0.0534  0.2120  0.0284 </r>
        <r>  0.0227  0.2795  0.0000 </r>
       </set>
       <set comment="band 4">
        <r>  0.0000  0.2379  0.0342 </r>
        <r>  0.0000  0.3489  0.0000 </r>
       </set>
       <set comment="band 5">
        <r>  0.2340  0.0839  0.0368 </r>
        <r>  0.1098  0.1133  0.0000 </r>
       </set>
       <set comment="band 6">
        <r>  0.0092  0.2244  0.0746 </r>
        <r>  0.0074  0.0671  0.0000 </r>
       </set>
       <set comment="band 7">
        <r>  0.0000  0.2761  0.0784 </r>
        <r>  0.0000  0.0690  0.0000 </r>
       </set>
       <set comment="band 8">
        <r>  0.0089  0.1142  0.0685 </r>
        <r>  0.0037  0.2479  0.0000 </r>
       </set>
      </set>
      <set comment="kpoint 11">
       <set comment="band 1">
        <r>  0.1798  0.0478  0.0083 </r>
        <r>  0.4055  0.0058  0.0000 </r>
       </set>
       <set comment="band 2">
        <r>  0.2792  0.1137  0.0100 </r>
        <r>  0.0742  0.1543  0.0000 </r>
       </set>
       <set comment="band 3">
        <r>  0.0458  0.2159  0.0287 </r>
        <r>  0.0185  0.2801  0.0000 </r>
       </set>
       <set comment="band 4">
        <r>  0.0000  0.2219  0.0421 </r>
        <r>  0.0000  0.3645  0.0000 </r>
       </set>
       <set comment="band 5">
        <r>  0.2364  0.0937  0.0317 </r>
        <r>  0.1125  0.1142  0.0000 </r>
       </set>
       <set comment="band 6">
        <r>  0.0070  0.2413  0.0721 </r>
        <r>  0.0076  0.0745  0.0000 </r>
       </set>
       <set comment="band 7">
        <r>  0.0000  0.3227  0.0615 </r>
        <r>  0.0000  0.0657  0.0000 </r>
       </set>
       <set comment="band 8">
        <r>  0.0294  0.1263  0.0557 </r>
        <r>  0.0328  0.2358  0.0000 </r>
       </set>
      </set>
      <set comment="kpoint 12">
       <set comment="band 1">
        <r>  0.2272  0.0282  0.0038 </r>
        <r>  0.3704  0.0053  0.0000 </r>
       </set>
       <set comment="band 2">
        <r>  0.2246  0.1183  0.0252 </r>
        <r>  0.1104  0.1761  0.0000 </r>
       </set>
       <set comment="band 3">
        <r>  0.0307  0.2171  0.0335 </r>
        <r>  0.0101  0.2926  0.0000 </r>
       </set>
       <set comment="band 4">
        <r>  0.0000  0.1913  0.0557 </r>
        <r>  0.0000  0.3880  0.0000 </r>
       </set>
       <set comment="band 5">
        <r>  0.2393  0.1072  0.0225 </r>
        <r>  0.1185  0.1266  0.0000 </r>
       </set>
       <set comment="band 6">
        <r>  0.0000  0.4076  0.0324 </r>
        <r>  0.0000  0.0614  0.0000 </r>
       </set>
       <set comment="band 7">
        <r>  0.0164  0.2958  0.0540 </r>
        <r>  0.0252  0.0860  0.0000 </r>
       </set>
       <set comment="band 8">
        <r>  0.0338  0.1537  0.0513 </r>
        <r>  0.0433  0.1912  0.0000 </r>
       </set>
      </set>
      <set comment="kpoint 13">
       <set comment="band 1">
        <r>  0.2570  0.0126  0.0014 </r>
        <r>  0.3537  0.0027  0.0000 </r>
       </set>
       <set comment="band 2">
        <r>  0.1769  0.1132  0.0416 </r>
        <r>  0.1208  0.2158  0.0000 </r>
       </set>
       <set comment="band 3">
        <r>  0.0111  0.2041  0.0470 </r>
        <r>  0.0009  0.3305  0.0000 </r>
       </set>
       <set comment="band 4">
        <r>  0.0000  0.1549  0.0707 </r>
        <r>  0.0000  0.4121  0.0000 </r>
       </set>
       <set comment="band 5">
        <r>  0.2649  0.0863  0.0131 </r>
        <r>  0.1598  0.1449  0.0000 </r>
       </set>
       <set comment="band 6">
        <r>  0.0181  0.3246  0.0374 </r>
        <r>  0.0379  0.0727  0.0000 </r>
       </set>
       <set comment="band 7">
        <r>  0.0000  0.4586  0.0160 </r>
        <r>  0.0000  0.0451  0.0000 </r>
       </set>
       <set comment="band 8">
        <r>  0.0168  0.3078  0.0368 </r>
        <r>  0.0251  0.1477  0.0000 </r>
       </set>
      </set>
      <set comment="kpoint 14">
       <set comment="band 1">
        <r>  0.2337  0.0257  0.0029 </r>
        <r>  0.3647  0.0052  0.0000 </r>
       </set>
       <set comment="band 2">
        <r>  0.2603  0.0746  0.0387 </r>
        <r>  0.1465  0.1808  0.0000 </r>
       </set>
       <set comment="band 3">
        <r>  0.0000  0.2334  0.0364 </r>
        <r>  0.0000  0.3289  0.0000 </r>
       </set>
       <set comment="band 4">
        <r>  0.0000  0.2334  0.0364 </r>
        <r>  0.0000  0.3289  0.0000 </r>
       </set>
       <set comment="band 5">
        <r>  0.1416  0.1888  0.0360 </r>
        <r>  0.0033  0.0745  0.0000 </r>
       </set>
       <set comment="band 6">
        <r>  0.1081  0.1459  0.0321 </r>
        <r>  0.1283  0.1353  0.0000 </r>
       </set>
       <set comment="band 7">
        <r>  0.0000  0.3590  0.0491 </r>
        <r>  0.0000  0.1357  0.0000 </r>
       </set>
       <set comment="band 8">
        <r>  0.0000  0.3590  0.0491 </r>
        <r>  0.0000  0.1357  0.0000 </r>
       </set>
      </set>
      <set comment="kpoint 15">
       <set comment="band 1">
        <r>  0.1998  0.0422  0.0055 </r>
        <r>  0.3844  0.0072  0.0000 </r>
       </set>
       <set comment="band 2">
        <r>  0.3018  0.0776  0.0262 </r>
        <r>  0.1261  0.1601  0.0000 </r>
       </set>
       <set comment="band 3">
        <r>  0.0223  0.2345  0.0269 </r>
        <r>  0.0070  0.2902  0.0000 </r>
       </set>
       <set comment="band 4">
        <r>  0.0000  0.2506  0.0272 </r>
        <r>  0.0000  0.3175  0.0000 </r>
       </set>
       <set comment="band 5">
        <r>  0.1292  0.1553  0.0489 </r>
        <r>  0.0139  0.0906  0.0000 </r>
       </set>
       <set comment="band 6">
        <r>  0.0975  0.1307  0.0495 </r>
        <r>  0.0821  0.1175  0.0000 </r>
       </set>
       <set comment="band 7">
        <r>  0.0159  0.2330  0.0776 </r>
        <r>  0.0271  0.1037  0.0000 </r>
       </set>
       <set comment="band 8">
        <r>  0.0000  0.3184  0.0634 </r>
        <r>  0.0000  0.1374  0.0000 </r>
       </set>
      </set>
      <set comment="kpoint 16">
       <set comment="band 1">
        <r>  0.1451  0.0632  0.0103 </r>
        <r>  0.4249  0.0068  0.0000 </r>
       </set>
       <set comment="band 2">
        <r>  0.3568  0.0764  0.0118 </r>
        <r>  0.0802  0.1466  0.0000 </r>
       </set>
       <set comment="band 3">
        <r>  0.0453  0.2241  0.0213 </r>
        <r>  0.0152  0.2542  0.0000 </r>
       </set>
       <set comment="band 4">
        <r>  0.0000  0.2584  0.0231 </r>
        <r>  0.0000  0.3163  0.0000 </r>
       </set>
       <set comment="band 5">
        <r>  0.1277  0.1218  0.0592 </r>
        <r>  0.0403  0.0868  0.0000 </r>
       </set>
       <set comment="band 6">
        <r>  0.1038  0.1070  0.0478 </r>
        <r>  0.0359  0.1893  0.0000 </r>
       </set>
       <set comment="band 7">
        <r>  0.0096  0.2252  0.0910 </r>
        <r>  0.0425  0.0596  0.0000 </r>
       </set>
       <set comment="band 8">
        <r>  0.0000  0.2682  0.0800 </r>
        <r>  0.0000  0.1158  0.0000 </r>
       </set>
      </set>
      <set comment="kpoint 17">
       <set comment="band 1">
        <r>  0.0966  0.0772  0.0151 </r>
        <r>  0.4684  0.0032  0.0000 </r>
       </set>
       <set comment="band 2">
        <r>  0.4058  0.0712  0.0026 </r>
        <r>  0.0336  0.1439  0.0000 </r>
       </set>
       <set comment="band 3">
        <r>  0.0515  0.2209  0.0178 </r>
        <r>  0.0178  0.2379  0.0000 </r>
       </set>
       <set comment="band 4">
        <r>  0.0000  0.2564  0.0245 </r>
        <r>  0.0000  0.3235  0.0000 </r>
       </set>
       <set comment="band 5">
        <r>  0.1397  0.1154  0.0588 </r>
        <r>  0.0527  0.0823  0.0000 </r>
       </set>
       <set comment="band 6">
        <r>  0.0915  0.0988  0.0463 </r>
        <r>  0.0253  0.2082  0.0000 </r>
       </set>
       <set comment="band 7">
        <r>  0.0000  0.2595  0.0796 </r>
        <r>  0.0000  0.1027  0.0000 </r>
       </set>
       <set comment="band 8">
        <r>  0.0141  0.1798  0.1050 </r>
        <r>  0.0270  0.1076  0.0000 </r>
       </set>
      </set>
      <set comment="kpoint 18">
       <set comment="band 1">
        <r>  0.1296  0.0667  0.0124 </r>
        <r>  0.4412  0.0054  0.0000 </r>
       </set>
       <set comment="band 2">
        <r>  0.3741  0.0787  0.0071 </r>
        <r>  0.0625  0.1440  0.0000 </r>
       </set>
       <set comment="band 3">
        <r>  0.0425  0.2269  0.0161 </r>
        <r>  0.0122  0.2361  0.0000 </r>
       </set>
       <set comment="band 4">
        <r>  0.0000  0.2436  0.0317 </r>
        <r>  0.0000  0.3394  0.0000 </r>
       </set>
       <set comment="band 5">
        <r>  0.1611  0.1225  0.0508 </r>
        <r>  0.0622  0.0934  0.0000 </r>
       </set>
       <set comment="band 6">
        <r>  0.0704  0.1141  0.0504 </r>
        <r>  0.0223  0.1805  0.0000 </r>
       </set>
       <set comment="band 7">
        <r>  0.0000  0.3044  0.0603 </r>
        <r>  0.0000  0.0996  0.0000 </r>
       </set>
       <set comment="band 8">
        <r>  0.0303  0.1224  0.0878 </r>
        <r>  0.0362  0.2057  0.0000 </r>
       </set>
      </set>
      <set comment="kpoint 19">
       <set comment="band 1">
        <r>  0.1882  0.0457  0.0071 </r>
        <r>  0.3957  0.0069  0.0000 </r>
       </set>
       <set comment="band 2">
        <r>  0.3042  0.0924  0.0184 </r>
        <r>  0.1082  0.1544  0.0000 </r>
       </set>
       <set comment="band 3">
        <r>  0.0317  0.2335  0.0186 </r>
        <r>  0.0038  0.2491  0.0000 </r>
       </set>
       <set comment="band 4">
        <r>  0.0000  0.2195  0.0435 </r>
        <r>  0.0000  0.3640  0.0000 </r>
       </set>
       <set comment="band 5">
        <r>  0.2014  0.1264  0.0344 </r>
        <r>  0.0790  0.1256  0.0000 </r>
       </set>
       <set comment="band 6">
        <r>  0.0566  0.1744  0.0521 </r>
        <r>  0.0146  0.1393  0.0000 </r>
       </set>
       <set comment="band 7">
        <r>  0.0000  0.3766  0.0378 </r>
        <r>  0.0000  0.0864  0.0000 </r>
       </set>
       <set comment="band 8">
        <r>  0.0128  0.1440  0.0762 </r>
        <r>  0.0616  0.1620  0.0000 </r>
       </set>
      </set>
      <set comment="kpoint 20">
       <set comment="band 1">
        <r>  0.1650  0.0583  0.0077 </r>
        <r>  0.4045  0.0084  0.0000 </r>
       </set>
       <set comment="band 2">
        <r>  0.3637  0.0520  0.0229 </r>
        <r>  0.1166  0.1479  0.0000 </r>
       </set>
       <set comment="band 3">
        <r>  0.0000  0.2652  0.0187 </r>
        <r>  0.0000  0.3046  0.0000 </r>
       </set>
       <set comment="band 4">
        <r>  0.0000  0.2652  0.0187 </r>
        <r>  0.0000  0.3046  0.0000 </r>
       </set>
       <set comment="band 5">
        <r>  0.1232  0.1517  0.0505 </r>
        <r>  0.0208  0.0502  0.0000 </r>
       </set>
       <set comment="band 6">
        <r>  0.0909  0.0861  0.0739 </r>
        <r>  0.0556  0.0781  0.0000 </r>
       </set>
       <set comment="band 7">
        <r>  0.0000  0.3235  0.0596 </r>
        <r>  0.0000  0.1662  0.0000 </r>
       </set>
       <set comment="band 8">
        <r>  0.0000  0.3235  0.0596 </r>
        <r>  0.0000  0.1662  0.0000 </r>
       </set>
      </set>
      <set comment="kpoint 21">
       <set comment="band 1">
        <r>  0.1045  0.0809  0.0122 </r>
        <r>  0.4473  0.0070  0.0000 </r>
       </set>
       <set comment="band 2">
        <r>  0.4363  0.0353  0.0135 </r>
        <r>  0.0753  0.1400  0.0000 </r>
       </set>
       <set comment="band 3">
        <r>  0.0092  0.2610  0.0136 </r>
        <r>  0.0014  0.2703  0.0000 </r>
       </set>
       <set comment="band 4">
        <r>  0.0000  0.2722  0.0145 </r>
        <r>  0.0000  0.3010  0.0000 </r>
       </set>
       <set comment="band 5">
        <r>  0.1034  0.1301  0.0630 </r>
        <r>  0.0312  0.0579  0.0000 </r>
       </set>
       <set comment="band 6">
        <r>  0.0979  0.0863  0.0734 </r>
        <r>  0.0368  0.0969  0.0000 </r>
       </set>
       <set comment="band 7">
        <r>  0.0377  0.2208  0.0589 </r>
        <r>  0.0323  0.1686  0.0000 </r>
       </set>
       <set comment="band 8">
        <r>  0.0000  0.2842  0.0692 </r>
        <r>  0.0000  0.1549  0.0000 </r>
       </set>
      </set>
      <set comment="kpoint 22">
       <set comment="band 1">
        <r>  0.0405  0.0992  0.0177 </r>
        <r>  0.5008  0.0023  0.0000 </r>
       </set>
       <set comment="band 2">
        <r>  0.5159  0.0201  0.0044 </r>
        <r>  0.0229  0.1381  0.0000 </r>
       </set>
       <set comment="band 3">
        <r>  0.0083  0.2526  0.0108 </r>
        <r>  0.0019  0.2388  0.0000 </r>
       </set>
       <set comment="band 4">
        <r>  0.0000  0.2711  0.0155 </r>
        <r>  0.0000  0.3053  0.0000 </r>
       </set>
       <set comment="band 5">
        <r>  0.1058  0.1106  0.0688 </r>
        <r>  0.0400  0.0553  0.0000 </r>
       </set>
       <set comment="band 6">
        <r>  0.0926  0.0796  0.0696 </r>
        <r>  0.0158  0.1741  0.0000 </r>
       </set>
       <set comment="band 7">
        <r>  0.0439  0.2003  0.0640 </r>
        <r>  0.0347  0.1404  0.0000 </r>
       </set>
       <set comment="band 8">
        <r>  0.0000  0.2613  0.0664 </r>
        <r>  0.0000  0.1429  0.0000 </r>
       </set>
      </set>
      <set comment="kpoint 23">
       <set comment="band 1">
        <r>  0.0606  0.0901  0.0174 </r>
        <r>  0.4911  0.0028  0.0000 </r>
       </set>
       <set comment="band 2">
        <r>  0.4970  0.0332  0.0035 </r>
        <r>  0.0305  0.1369  0.0000 </r>
       </set>
       <set comment="band 3">
        <r>  0.0059  0.2472  0.0104 </r>
        <r>  0.0017  0.2294  0.0000 </r>
       </set>
       <set comment="band 4">
        <r>  0.0000  0.2616  0.0217 </r>
        <r>  0.0000  0.3177  0.0000 </r>
       </set>
       <set comment="band 5">
        <r>  0.1188  0.1162  0.0647 </r>
        <r>  0.0446  0.0632  0.0000 </r>
       </set>
       <set comment="band 6">
        <r>  0.1180  0.0231  0.0332 </r>
        <r>  0.0000  0.3004  0.0000 </r>
       </set>
       <set comment="band 7">
        <r>  0.0000  0.2867  0.0531 </r>
        <r>  0.0000  0.1366  0.0000 </r>
       </set>
       <set comment="band 8">
        <r>  0.0221  0.0529  0.1469 </r>
        <r>  0.0057  0.1336  0.0000 </r>
       </set>
      </set>
      <set comment="kpoint 24">
       <set comment="band 1">
        <r>  0.0402  0.1042  0.0158 </r>
        <r>  0.4921  0.0034  0.0000 </r>
       </set>
       <set comment="band 2">
        <r>  0.5049  0.0122  0.0084 </r>
        <r>  0.0305  0.1398  0.0000 </r>
       </set>
       <set comment="band 3">
        <r>  0.0000  0.2792  0.0099 </r>
        <r>  0.0000  0.2949  0.0000 </r>
       </set>
       <set comment="band 4">
        <r>  0.0000  0.2792  0.0099 </r>
        <r>  0.0000  0.2949  0.0000 </r>
       </set>
       <set comment="band 5">
        <r>  0.0818  0.1364  0.0668 </r>
        <r>  0.0424  0.0334  0.0000 </r>
       </set>
       <set comment="band 6">
        <r>  0.1282  0.0585  0.0758 </r>
        <r>  0.0297  0.0686  0.0000 </r>
       </set>
       <set comment="band 7">
        <r>  0.0000  0.3488  0.0411 </r>
        <r>  0.0000  0.2009  0.0000 </r>
       </set>
       <set comment="band 8">
        <r>  0.0000  0.3488  0.0411 </r>
        <r>  0.0000  0.2009  0.0000 </r>
       </set>
      </set>
      <set comment="kpoint 25">
       <set comment="band 1">
        <r>  0.0009  0.1154  0.0188 </r>
        <r>  0.5241  0.0000  0.0000 </r>
       </set>
       <set comment="band 2">
        <r>  0.5527  0.0007  0.0044 </r>
        <r>  0.0003  0.1406  0.0000 </r>
       </set>
       <set comment="band 3">
        <r>  0.0042  0.2685  0.0095 </r>
        <r>  0.0006  0.2645  0.0000 </r>
       </set>
       <set comment="band 4">
        <r>  0.0000  0.2789  0.0103 </r>
        <r>  0.0000  0.2963  0.0000 </r>
       </set>
       <set comment="band 5">
        <r>  0.0870  0.1127  0.0727 </r>
        <r>  0.0429  0.0424  0.0000 </r>
       </set>
       <set comment="band 6">
        <r>  0.1122  0.0861  0.0714 </r>
        <r>  0.0236  0.1002  0.0000 </r>
       </set>
       <set comment="band 7">
        <r>  0.0498  0.2227  0.0137 </r>
        <r>  0.0068  0.2267  0.0000 </r>
       </set>
       <set comment="band 8">
        <r>  0.0000  0.3117  0.0364 </r>
        <r>  0.0000  0.1904  0.0000 </r>
       </set>
      </set>
      <set comment="kpoint 26">
       <set comment="band 1">
        <r>  0.2231  0.0307  0.0039 </r>
        <r>  0.3717  0.0058  0.0000 </r>
       </set>
       <set comment="band 2">
        <r>  0.2545  0.0962  0.0295 </r>
        <r>  0.1282  0.1734  0.0000 </r>
       </set>
       <set comment="band 3">
        <r>  0.0198  0.2328  0.0281 </r>
        <r>  0.0020  0.2859  0.0000 </r>
       </set>
       <set comment="band 4">
        <r>  0.0096  0.2103  0.0448 </r>
        <r>  0.0055  0.3479  0.0000 </r>
       </set>
       <set comment="band 5">
        <r>  0.2073  0.0697  0.0482 </r>
        <r>  0.0106  0.1955  0.0000 </r>
       </set>
       <set comment="band 6">
        <r>  0.0452  0.3252  0.0124 </r>
        <r>  0.1308  0.0469  0.0000 </r>
       </set>
       <set comment="band 7">
        <r>  0.0037  0.1970  0.0772 </r>
        <r>  0.0000  0.1007  0.0000 </r>
       </set>
       <set comment="band 8">
        <r>  0.0022  0.3402  0.0576 </r>
        <r>  0.0109  0.1191  0.0000 </r>
       </set>
      </set>
      <set comment="kpoint 27">
       <set comment="band 1">
        <r>  0.1779  0.0502  0.0079 </r>
        <r>  0.4025  0.0070  0.0000 </r>
       </set>
       <set comment="band 2">
        <r>  0.3091  0.0930  0.0157 </r>
        <r>  0.0968  0.1529  0.0000 </r>
       </set>
       <set comment="band 3">
        <r>  0.0415  0.2266  0.0215 </r>
        <r>  0.0120  0.2577  0.0000 </r>
       </set>
       <set comment="band 4">
        <r>  0.0069  0.2325  0.0346 </r>
        <r>  0.0031  0.3295  0.0000 </r>
       </set>
       <set comment="band 5">
        <r>  0.1975  0.0764  0.0477 </r>
        <r>  0.0529  0.1775  0.0000 </r>
       </set>
       <set comment="band 6">
        <r>  0.0280  0.2799  0.0430 </r>
        <r>  0.0527  0.0657  0.0000 </r>
       </set>
       <set comment="band 7">
        <r>  0.0210  0.1598  0.0709 </r>
        <r>  0.0090  0.1188  0.0000 </r>
       </set>
       <set comment="band 8">
        <r>  0.0013  0.2676  0.0895 </r>
        <r>  0.0185  0.1067  0.0000 </r>
       </set>
      </set>
      <set comment="kpoint 28">
       <set comment="band 1">
        <r>  0.1211  0.0688  0.0133 </r>
        <r>  0.4504  0.0042  0.0000 </r>
       </set>
       <set comment="band 2">
        <r>  0.3659  0.0857  0.0039 </r>
        <r>  0.0448  0.1460  0.0000 </r>
       </set>
       <set comment="band 3">
        <r>  0.0601  0.2147  0.0208 </r>
        <r>  0.0219  0.2464  0.0000 </r>
       </set>
       <set comment="band 4">
        <r>  0.0021  0.2481  0.0278 </r>
        <r>  0.0006  0.3190  0.0000 </r>
       </set>
       <set comment="band 5">
        <r>  0.2000  0.0808  0.0479 </r>
        <r>  0.0696  0.1620  0.0000 </r>
       </set>
       <set comment="band 6">
        <r>  0.0033  0.2100  0.0703 </r>
        <r>  0.0191  0.0600  0.0000 </r>
       </set>
       <set comment="band 7">
        <r>  0.0294  0.2244  0.0543 </r>
        <r>  0.0018  0.1515  0.0000 </r>
       </set>
       <set comment="band 8">
        <r>  0.0123  0.1578  0.1132 </r>
        <r>  0.0231  0.1377  0.0000 </r>
       </set>
      </set>
      <set comment="kpoint 29">
       <set comment="band 1">
        <r>  0.1540  0.0614  0.0091 </r>
        <r>  0.4146  0.0079  0.0000 </r>
       </set>
       <set comment="band 2">
        <r>  0.3720  0.0586  0.0182 </r>
        <r>  0.1044  0.1456  0.0000 </r>
       </set>
       <set comment="band 3">
        <r>  0.0181  0.2495  0.0167 </r>
        <r>  0.0024  0.2675  0.0000 </r>
       </set>
       <set comment="band 4">
        <r>  0.0042  0.2549  0.0224 </r>
        <r>  0.0014  0.2977  0.0000 </r>
       </set>
       <set comment="band 5">
        <r>  0.1131  0.1402  0.0584 </r>
        <r>  0.0116  0.1113  0.0000 </r>
       </set>
       <set comment="band 6">
        <r>  0.0932  0.1018  0.0646 </r>
        <r>  0.0614  0.1076  0.0000 </r>
       </set>
       <set comment="band 7">
        <r>  0.0234  0.2287  0.0695 </r>
        <r>  0.0315  0.1045  0.0000 </r>
       </set>
       <set comment="band 8">
        <r>  0.0020  0.3221  0.0655 </r>
        <r>  0.0044  0.1570  0.0000 </r>
       </set>
      </set>
      <set comment="kpoint 30">
       <set comment="band 1">
        <r>  0.0875  0.0835  0.0147 </r>
        <r>  0.4666  0.0050  0.0000 </r>
       </set>
       <set comment="band 2">
        <r>  0.4536  0.0422  0.0075 </r>
        <r>  0.0534  0.1390  0.0000 </r>
       </set>
       <set comment="band 3">
        <r>  0.0246  0.2404  0.0142 </r>
        <r>  0.0062  0.2435  0.0000 </r>
       </set>
       <set comment="band 4">
        <r>  0.0019  0.2622  0.0180 </r>
        <r>  0.0003  0.2860  0.0000 </r>
       </set>
       <set comment="band 5">
        <r>  0.1091  0.1098  0.0676 </r>
        <r>  0.0298  0.1145  0.0000 </r>
       </set>
       <set comment="band 6">
        <r>  0.0999  0.0755  0.0641 </r>
        <r>  0.0241  0.1882  0.0000 </r>
       </set>
       <set comment="band 7">
        <r>  0.0136  0.2463  0.0712 </r>
        <r>  0.0369  0.0639  0.0000 </r>
       </set>
       <set comment="band 8">
        <r>  0.0117  0.2551  0.0724 </r>
        <r>  0.0103  0.1448  0.0000 </r>
       </set>
      </set>
      <set comment="kpoint 31">
       <set comment="band 1">
        <r>  0.0603  0.0902  0.0174 </r>
        <r>  0.4915  0.0026  0.0000 </r>
       </set>
       <set comment="band 2">
        <r>  0.4866  0.0383  0.0029 </r>
        <r>  0.0276  0.1384  0.0000 </r>
       </set>
       <set comment="band 3">
        <r>  0.0215  0.2382  0.0129 </r>
        <r>  0.0066  0.2331  0.0000 </r>
       </set>
       <set comment="band 4">
        <r>  0.0034  0.2593  0.0195 </r>
        <r>  0.0009  0.2894  0.0000 </r>
       </set>
       <set comment="band 5">
        <r>  0.1227  0.1001  0.0670 </r>
        <r>  0.0353  0.1250  0.0000 </r>
       </set>
       <set comment="band 6">
        <r>  0.0712  0.1082  0.0598 </r>
        <r>  0.0211  0.1797  0.0000 </r>
       </set>
       <set comment="band 7">
        <r>  0.0466  0.1715  0.0541 </r>
        <r>  0.0113  0.1774  0.0000 </r>
       </set>
       <set comment="band 8">
        <r>  0.0016  0.2094  0.1091 </r>
        <r>  0.0254  0.0387  0.0000 </r>
       </set>
      </set>
      <set comment="kpoint 32">
       <set comment="band 1">
        <r>  0.1190  0.0716  0.0128 </r>
        <r>  0.4456  0.0060  0.0000 </r>
       </set>
       <set comment="band 2">
        <r>  0.4143  0.0582  0.0093 </r>
        <r>  0.0717  0.1400  0.0000 </r>
       </set>
       <set comment="band 3">
        <r>  0.0222  0.2398  0.0133 </r>
        <r>  0.0035  0.2369  0.0000 </r>
       </set>
       <set comment="band 4">
        <r>  0.0056  0.2481  0.0261 </r>
        <r>  0.0020  0.3052  0.0000 </r>
       </set>
       <set comment="band 5">
        <r>  0.1660  0.0790  0.0592 </r>
        <r>  0.0366  0.1697  0.0000 </r>
       </set>
       <set comment="band 6">
        <r>  0.0006  0.2883  0.0597 </r>
        <r>  0.0527  0.0609  0.0000 </r>
       </set>
       <set comment="band 7">
        <r>  0.0695  0.0714  0.0594 </r>
        <r>  0.0035  0.1783  0.0000 </r>
       </set>
       <set comment="band 8">
        <r>  0.0028  0.2856  0.0876 </r>
        <r>  0.0202  0.1402  0.0000 </r>
       </set>
      </set>
      <set comment="kpoint 33">
       <set comment="band 1">
        <r>  0.0350  0.1034  0.0171 </r>
        <r>  0.4999  0.0028  0.0000 </r>
       </set>
       <set comment="band 2">
        <r>  0.5213  0.0119  0.0064 </r>
        <r>  0.0260  0.1383  0.0000 </r>
       </set>
       <set comment="band 3">
        <r>  0.0099  0.2568  0.0127 </r>
        <r>  0.0013  0.2665  0.0000 </r>
       </set>
       <set comment="band 4">
        <r>  0.0000  0.2750  0.0105 </r>
        <r>  0.0003  0.2704  0.0000 </r>
       </set>
       <set comment="band 5">
        <r>  0.0643  0.1403  0.0718 </r>
        <r>  0.0359  0.0798  0.0000 </r>
       </set>
       <set comment="band 6">
        <r>  0.1258  0.0675  0.0710 </r>
        <r>  0.0247  0.1106  0.0000 </r>
       </set>
       <set comment="band 7">
        <r>  0.0308  0.2175  0.0625 </r>
        <r>  0.0236  0.1477  0.0000 </r>
       </set>
       <set comment="band 8">
        <r>  0.0200  0.2816  0.0273 </r>
        <r>  0.0067  0.1931  0.0000 </r>
       </set>
      </set>
      <set comment="kpoint 34">
       <set comment="band 1">
        <r>  0.0081  0.1091  0.0200 </r>
        <r>  0.5250  0.0003  0.0000 </r>
       </set>
       <set comment="band 2">
        <r>  0.5646  0.0047  0.0022 </r>
        <r>  0.0035  0.1372  0.0000 </r>
       </set>
       <set comment="band 3">
        <r>  0.0007  0.2541  0.0110 </r>
        <r>  0.0000  0.2410  0.0000 </r>
       </set>
       <set comment="band 4">
        <r>  0.0037  0.2677  0.0130 </r>
        <r>  0.0010  0.2724  0.0000 </r>
       </set>
       <set comment="band 5">
        <r>  0.0930  0.1074  0.0725 </r>
        <r>  0.0328  0.0982  0.0000 </r>
       </set>
       <set comment="band 6">
        <r>  0.0965  0.0737  0.0709 </r>
        <r>  0.0132  0.1800  0.0000 </r>
       </set>
       <set comment="band 7">
        <r>  0.0238  0.2161  0.0692 </r>
        <r>  0.0187  0.1300  0.0000 </r>
       </set>
       <set comment="band 8">
        <r>  0.0259  0.2251  0.0656 </r>
        <r>  0.0331  0.1040  0.0000 </r>
       </set>
      </set>
      <set comment="kpoint 35">
       <set comment="band 1">
        <r>  0.0218  0.1038  0.0195 </r>
        <r>  0.5161  0.0014  0.0000 </r>
       </set>
       <set comment="band 2">
        <r>  0.5554  0.0100  0.0024 </r>
        <r>  0.0137  0.1356  0.0000 </r>
       </set>
       <set comment="band 3">
        <r>  0.0046  0.2442  0.0137 </r>
        <r>  0.0011  0.2433  0.0000 </r>
       </set>
       <set comment="band 4">
        <r>  0.0013  0.2686  0.0118 </r>
        <r>  0.0001  0.2543  0.0000 </r>
       </set>
       <set comment="band 5">
        <r>  0.1294  0.0242  0.0777 </r>
        <r>  0.0003  0.2315  0.0000 </r>
       </set>
       <set comment="band 6">
        <r>  0.0874  0.0672  0.0719 </r>
        <r>  0.0224  0.1897  0.0000 </r>
       </set>
       <set comment="band 7">
        <r>  0.0007  0.2973  0.0619 </r>
        <r>  0.0507  0.0122  0.0000 </r>
       </set>
       <set comment="band 8">
        <r>  0.0155  0.2305  0.0795 </r>
        <r>  0.0281  0.0721  0.0000 </r>
       </set>
      </set>
     </set>
    </set>
   </array>
  </projected>
 </calculation>
 <structure name="finalpos" >
  <crystal>
   <varray name="basis" >
    <v>       0.00000000       2.76690150       2.76690150 </v>
    <v>       2.76690150       0.00000000       2.76690150 </v>
    <v>       2.76690150       2.76690150       0.00000000 </v>
   </varray>
   <i name="volume">     42.36537878 </i>
   <varray name="rec_basis" >
    <v>      -0.18070755       0.18070755       0.18070755 </v>
    <v>       0.18070755      -0.18070755       0.18070755 </v>
    <v>       0.18070755       0.18070755      -0.18070755 </v>
   </varray>
  </crystal>
  <varray name="positions" >
   <v>       0.00000000       0.00000000       0.00000000 </v>
   <v>       0.25000000       0.25000000       0.25000000 </v>
  </varray>
 </structure>
</modeling>
