GaP                                     
           1
     0.000000    2.766902    2.766902
     2.766902    0.000000    2.766902
     2.766902    2.766902    0.000000
   Ga   P 
   1   1
Direct configuration=     1
   0.00000000  0.00000000  0.00000000
   0.25000000  0.25000000  0.25000000
