   2   2   1   0
  0.2700540E+02  0.4242924E-09  0.4242924E-09  0.4242924E-09  0.5000000E-15
  1.000000000000000E-004
  CAR 
 InP                                     
     13.02931856     -8.80513379   11      3.40851300      1.00000000
     -8.805  0.0000E+00  0.0000E+00
     -6.622  0.9047E-03  0.6941E-02
     -4.438  0.0000E+00  0.2000E-01
     -2.255  0.0000E+00  0.2000E-01
     -0.071  0.0000E+00  0.3822E-01
      2.112  0.7029E-05  0.6863E-01
      4.296  0.0000E+00  0.8003E-01
      6.479  0.6031E-03  0.1021E+00
      8.662  0.3016E-03  0.1316E+00
     10.846  0.0000E+00  0.1577E+00
     13.029  0.0000E+00  0.1600E+00
     13.02931856     -8.80513379   11      3.40851300      1.00000000
     -8.805  0.0000E+00  0.0000E+00  0.0000E+00
     -6.622  0.1461E-01  0.5842E-02  0.1080E-02
     -4.438  0.0000E+00  0.0000E+00  0.0000E+00
     -2.255  0.0000E+00  0.0000E+00  0.0000E+00
     -0.071  0.0000E+00  0.0000E+00  0.0000E+00
      2.112  0.7832E-09  0.1826E-03  0.3195E-04
      4.296  0.0000E+00  0.0000E+00  0.0000E+00
      6.479  0.7263E-02  0.8996E-02  0.3329E-02
      8.662  0.1168E-16  0.1169E-01  0.2623E-02
     10.846  0.0000E+00  0.0000E+00  0.0000E+00
     13.029  0.0000E+00  0.0000E+00  0.0000E+00
     13.02931856     -8.80513379   11      3.40851300      1.00000000
     -8.805  0.0000E+00  0.0000E+00  0.0000E+00
     -6.622  0.3945E-01  0.3001E-03  0.0000E+00
     -4.438  0.0000E+00  0.0000E+00  0.0000E+00
     -2.255  0.0000E+00  0.0000E+00  0.0000E+00
     -0.071  0.0000E+00  0.0000E+00  0.0000E+00
      2.112  0.2766E-09  0.2336E-03  0.0000E+00
      4.296  0.0000E+00  0.0000E+00  0.0000E+00
      6.479  0.4043E-02  0.8711E-02  0.0000E+00
      8.662  0.9617E-17  0.2453E-02  0.0000E+00
     10.846  0.0000E+00  0.0000E+00  0.0000E+00
     13.029  0.0000E+00  0.0000E+00  0.0000E+00
