    2    2  100    1
  0.2700540E+02  0.4242923E-09  0.4242923E-09  0.4242923E-09  0.5000000E-15
  1.000000000000000E-004
  CAR 
 InP                                     
      8     35      8
 
  0.0000000E+00  0.0000000E+00  0.0000000E+00  0.1371742E-02
    1       -7.812659   1.000000
    2        3.224078   1.000000
    3        3.224078   1.000000
    4        3.224078   1.000000
    5        3.600862   0.000000
    6        7.348118   0.000000
    7        7.348118   0.000000
    8        7.348118   0.000000
 
  0.1111111E+00 -0.6646414E-19  0.1064325E-17  0.1097394E-01
    1       -7.699730   1.000000
    2        1.870143   1.000000
    3        3.091360   1.000000
    4        3.091360   1.000000
    5        4.553644   0.000000
    6        7.401571   0.000000
    7        7.553811   0.000000
    8        7.553811   0.000000
 
  0.2222222E+00 -0.2092048E-16  0.2098129E-17  0.1097394E-01
    1       -7.378400   1.000000
    2        0.285929   1.000000
    3        2.803269   1.000000
    4        2.803269   1.000000
    5        4.872745   0.000000
    6        7.932339   0.000000
    7        7.932339   0.000000
    8        8.090425   0.000000
 
  0.3333333E+00 -0.7107764E-17 -0.1071672E-16  0.1097394E-01
    1       -6.921210   1.000000
    2       -1.105230   1.000000
    3        2.531561   1.000000
    4        2.531562   1.000000
    5        4.740291   0.000000
    6        8.088800   0.000000
    7        8.088801   0.000000
    8        9.274354   0.000000
 
  0.4444444E+00 -0.4184095E-16  0.4196258E-17  0.1097394E-01
    1       -6.528524   1.000000
    2       -1.989963   1.000000
    3        2.376130   1.000000
    4        2.376130   1.000000
    5        4.613055   0.000000
    6        8.059787   0.000000
    7        8.059788   0.000000
    8       10.078673   0.000000
 
  0.1111111E+00  0.1111111E+00 -0.1650634E-18  0.8230453E-02
    1       -7.661826   1.000000
    2        1.816942   1.000000
    3        2.851615   1.000000
    4        2.851615   1.000000
    5        4.965002   0.000000
    6        6.840002   0.000000
    7        7.885190   0.000000
    8        7.885190   0.000000
 
  0.2222222E+00  0.1111111E+00 -0.4392275E-18  0.3292181E-01
    1       -7.408565   1.000000
    2        0.636768   1.000000
    3        2.516275   1.000000
    4        2.553946   1.000000
    5        5.483114   0.000000
    6        6.818517   0.000000
    7        8.377567   0.000000
    8        8.387554   0.000000
 
  0.3333333E+00  0.1111111E+00 -0.2846430E-17  0.3292181E-01
    1       -6.989556   1.000000
    2       -0.710761   1.000000
    3        2.167089   1.000000
    4        2.255876   1.000000
    5        5.461719   0.000000
    6        7.427558   0.000000
    7        8.624856   0.000000
    8        8.766257   0.000000
 
  0.4444444E+00  0.1111111E+00 -0.8748746E-17  0.3292181E-01
    1       -6.551020   1.000000
    2       -1.743821   1.000000
    3        1.825798   1.000000
    4        2.154446   1.000000
    5        5.327234   0.000000
    6        7.681153   0.000000
    7        8.527580   0.000000
    8        9.656550   0.000000
 
 -0.4444444E+00  0.1111111E+00  0.3671259E-17  0.3292181E-01
    1       -6.397006   1.000000
    2       -2.050863   1.000000
    3        1.638169   1.000000
    4        2.233790   1.000000
    5        5.283973   0.000000
    6        7.776546   0.000000
    7        8.365461   0.000000
    8       10.204522   0.000000
 
 -0.3333333E+00  0.1111111E+00  0.1167448E-16  0.3292181E-01
    1       -6.685922   1.000000
    2       -1.453350   1.000000
    3        1.655173   1.000000
    4        2.470566   1.000000
    5        5.355700   0.000000
    6        7.960762   0.000000
    7        8.239535   0.000000
    8        9.410166   0.000000
 
 -0.2222222E+00  0.1111111E+00 -0.1168119E-17  0.3292181E-01
    1       -7.143991   1.000000
    2       -0.284930   1.000000
    3        1.909490   1.000000
    4        2.792776   1.000000
    5        5.445341   0.000000
    6        7.835120   0.000000
    7        8.014356   0.000000
    8        8.529317   0.000000
 
 -0.1111111E+00  0.1111111E+00 -0.1329283E-18  0.1646091E-01
    1       -7.516561   1.000000
    2        0.994726   1.000000
    3        2.445505   1.000000
    4        3.060312   1.000000
    5        5.167038   0.000000
    6        7.305512   0.000000
    7        7.658547   0.000000
    8        8.219848   0.000000
 
  0.2222222E+00  0.2222222E+00 -0.3301269E-18  0.8230453E-02
    1       -7.228846   1.000000
    2        0.294584   1.000000
    3        2.137991   1.000000
    4        2.137991   1.000000
    5        5.906113   0.000000
    6        6.151789   0.000000
    7        9.102014   0.000000
    8        9.102015   0.000000
 
  0.3333333E+00  0.2222222E+00  0.1585629E-17  0.3292181E-01
    1       -6.873144   1.000000
    2       -0.616370   1.000000
    3        1.678954   1.000000
    4        1.851486   1.000000
    5        5.862796   0.000000
    6        6.438662   0.000000
    7        9.093745   0.000000
    8        9.598281   0.000000
 
  0.4444444E+00  0.2222222E+00  0.6089573E-17  0.3292181E-01
    1       -6.448375   1.000000
    2       -1.518315   1.000000
    3        1.116239   1.000000
    4        1.746366   1.000000
    5        5.817190   0.000000
    6        7.254798   0.000000
    7        9.015771   0.000000
    8        9.579275   0.000000
 
 -0.4444444E+00  0.2222222E+00  0.1157207E-16  0.3292181E-01
    1       -6.196725   1.000000
    2       -1.971350   1.000000
    3        0.712421   1.000000
    4        1.846753   1.000000
    5        5.851426   0.000000
    6        7.766371   0.000000
    7        9.307791   0.000000
    8        9.715687   0.000000
 
 -0.3333333E+00  0.2222222E+00  0.1957529E-16  0.3292181E-01
    1       -6.348972   1.000000
    2       -1.701729   1.000000
    3        0.616732   1.000000
    4        2.126171   1.000000
    5        5.994936   0.000000
    6        7.976807   0.000000
    7        8.976520   0.000000
    8        9.440863   0.000000
 
 -0.2222222E+00  0.2222222E+00  0.1367020E-16  0.1646091E-01
    1       -6.754950   1.000000
    2       -0.980677   1.000000
    3        0.983722   1.000000
    4        2.498267   1.000000
    5        6.022959   0.000000
    6        8.239335   0.000000
    7        8.288224   0.000000
    8        8.508100   0.000000
 
  0.3333333E+00  0.3333333E+00 -0.4951903E-18  0.8230453E-02
    1       -6.595421   1.000000
    2       -1.086954   1.000000
    3        1.524555   1.000000
    4        1.524555   1.000000
    5        5.385380   0.000000
    6        6.028681   0.000000
    7       10.580372   0.000000
    8       10.596006   0.000000
 
  0.4444444E+00  0.3333333E+00 -0.1379294E-16  0.3292181E-01
    1       -6.242056   1.000000
    2       -1.687181   1.000000
    3        1.048357   1.000000
    4        1.381236   1.000000
    5        5.478268   0.000000
    6        6.159582   0.000000
    7       10.275244   0.000000
    8       10.917649   0.000000
 
 -0.4444444E+00  0.3333333E+00 -0.8310438E-17  0.3292181E-01
    1       -5.997042   1.000000
    2       -2.017485   1.000000
    3        0.428264   1.000000
    4        1.456170   1.000000
    5        5.607971   0.000000
    6        7.201611   0.000000
    7       10.168056   0.000000
    8       10.573777   0.000000
 
 -0.3333333E+00  0.3333333E+00  0.2742061E-16  0.1646091E-01
    1       -6.051275   1.000000
    2       -1.939444   1.000000
    3        0.170813   1.000000
    4        1.731065   1.000000
    5        5.847581   0.000000
    6        8.130987   0.000000
    7        9.885851   0.000000
    8       10.119959   0.000000
 
  0.4444444E+00  0.4444444E+00 -0.6602537E-18  0.8230453E-02
    1       -6.015214   1.000000
    2       -2.053577   1.000000
    3        1.187769   1.000000
    4        1.187769   1.000000
    5        5.141755   0.000000
    6        5.593059   0.000000
    7       11.778472   0.000000
    8       12.036843   0.000000
 
 -0.4444444E+00  0.4444444E+00  0.2734040E-16  0.1646091E-01
    1       -5.909086   1.000000
    2       -2.171647   1.000000
    3        0.826238   1.000000
    4        1.214873   1.000000
    5        5.331540   0.000000
    6        5.965903   0.000000
    7       11.409935   0.000000
    8       11.765741   0.000000
 
  0.3333333E+00  0.2222222E+00  0.1111111E+00  0.3292181E-01
    1       -7.102864   1.000000
    2       -0.183137   1.000000
    3        1.709244   1.000000
    4        2.441414   1.000000
    5        6.009686   0.000000
    6        6.754531   0.000000
    7        8.534465   0.000000
    8        8.913047   0.000000
 
  0.4444444E+00  0.2222222E+00  0.1111111E+00  0.6584362E-01
    1       -6.672942   1.000000
    2       -1.171936   1.000000
    3        1.185669   1.000000
    4        2.144662   1.000000
    5        6.100638   0.000000
    6        7.356338   0.000000
    7        8.422654   0.000000
    8        9.378990   0.000000
 
 -0.4444444E+00  0.2222222E+00  0.1111111E+00  0.6584362E-01
    1       -6.310527   1.000000
    2       -1.888430   1.000000
    3        0.970951   1.000000
    4        1.916762   1.000000
    5        6.039083   0.000000
    6        7.500226   0.000000
    7        8.849284   0.000000
    8        9.908797   0.000000
 
  0.4444444E+00  0.3333333E+00  0.1111111E+00  0.3292181E-01
    1       -6.509595   1.000000
    2       -1.266722   1.000000
    3        1.124052   1.000000
    4        1.600447   1.000000
    5        6.114119   0.000000
    6        6.435184   0.000000
    7        8.973490   0.000000
    8       10.550360   0.000000
 
 -0.4444444E+00  0.3333333E+00  0.1111111E+00  0.6584362E-01
    1       -6.154833   1.000000
    2       -1.819547   1.000000
    3        0.630967   1.000000
    4        1.389787   1.000000
    5        6.261298   0.000000
    6        7.251769   0.000000
    7        8.777447   0.000000
    8       10.737738   0.000000
 
 -0.3333333E+00  0.3333333E+00  0.1111111E+00  0.6584362E-01
    1       -6.050957   1.000000
    2       -1.961660   1.000000
    3        0.347156   1.000000
    4        1.468964   1.000000
    5        6.397924   0.000000
    6        7.802920   0.000000
    7        8.918999   0.000000
    8       10.559412   0.000000
 
 -0.2222222E+00  0.3333333E+00  0.1111111E+00  0.3292181E-01
    1       -6.291938   1.000000
    2       -1.638818   1.000000
    3        0.486530   1.000000
    4        1.783652   1.000000
    5        6.533309   0.000000
    6        7.795945   0.000000
    7        8.183105   0.000000
    8       10.343505   0.000000
 
 -0.4444444E+00  0.4444444E+00  0.1111111E+00  0.3292181E-01
    1       -5.986597   1.000000
    2       -2.028377   1.000000
    3        0.870864   1.000000
    4        1.029916   1.000000
    5        5.851613   0.000000
    6        6.180475   0.000000
    7       10.228900   0.000000
    8       11.453879   0.000000
 
 -0.3333333E+00  0.4444444E+00  0.1111111E+00  0.3292181E-01
    1       -5.905497   1.000000
    2       -2.078374   1.000000
    3        0.403405   1.000000
    4        1.101251   1.000000
    5        6.150222   0.000000
    6        7.221914   0.000000
    7        9.841142   0.000000
    8       10.232866   0.000000
 
 -0.3333333E+00  0.4444444E+00  0.2222222E+00  0.3292181E-01
    1       -5.932282   1.000000
    2       -2.009976   1.000000
    3        0.429772   1.000000
    4        0.915505   1.000000
    5        7.149543   0.000000
    6        7.416677   0.000000
    7        8.540820   0.000000
    8       10.027802   0.000000
