       N       E                     dE             d eps       ncg     rms          rms(c)
DAV:   1     0.191173376391E+02    0.19117E+02   -0.31569E+03   560   0.771E+02
DAV:   2    -0.790127253446E+01   -0.27019E+02   -0.26463E+02   840   0.929E+01
DAV:   3    -0.874827601527E+01   -0.84700E+00   -0.84700E+00   696   0.210E+01
DAV:   4    -0.875336228475E+01   -0.50863E-02   -0.50863E-02   856   0.191E+00
DAV:   5    -0.875336948930E+01   -0.72045E-05   -0.72045E-05   704   0.636E-02
DAV:   6    -0.875336955155E+01   -0.62253E-07   -0.62253E-07   880   0.454E-03
DAV:   7    -0.875336955162E+01   -0.76568E-10   -0.76587E-10   704   0.155E-04
DAV:   8    -0.875336955163E+01   -0.56843E-12   -0.54810E-12   736   0.114E-05    0.538E+00
DAV:   9    -0.848113328756E+01    0.27224E+00   -0.43131E-01   584   0.267E+00    0.417E+00
DAV:  10    -0.835538757224E+01    0.12575E+00   -0.77456E-01   688   0.364E+00    0.217E+00
DAV:  11    -0.834420691603E+01    0.11181E-01   -0.54249E-02   624   0.137E+00    0.353E-01
DAV:  12    -0.834391211733E+01    0.29480E-03   -0.38781E-03   728   0.371E-01    0.223E-01
DAV:  13    -0.834397613863E+01   -0.64021E-04   -0.19163E-04   720   0.101E-01    0.102E-01
DAV:  14    -0.834398802523E+01   -0.11887E-04   -0.28274E-04   672   0.840E-02    0.511E-02
DAV:  15    -0.834398609705E+01    0.19282E-05   -0.13167E-05   600   0.248E-02    0.223E-02
DAV:  16    -0.834398581973E+01    0.27732E-06   -0.98611E-06   768   0.165E-02    0.281E-02
DAV:  17    -0.834398573500E+01    0.84729E-07   -0.58607E-07   648   0.504E-03
   1 F= -.83439857E+01 E0= -.83439857E+01  d E =-.834399E+01
