PROCAR new format
# of k-points:   35         # of bands:    8         # of ions:    2

 k-point     1 :    0.00000000 0.00000000 0.00000000     weight = 0.00137174

band     1 # energy   -7.81265868 # occ.  2.00000000
 
ion      s      p      d    tot
    1  0.297  0.000  0.000  0.297
    2  0.369  0.000  0.000  0.369
tot    0.666  0.000  0.000  0.666
 
band     2 # energy    3.22407768 # occ.  2.00000000
 
ion      s      p      d    tot
    1  0.000  0.112  0.114  0.226
    2  0.000  0.413  0.000  0.413
tot    0.000  0.525  0.114  0.640
 
band     3 # energy    3.22407797 # occ.  2.00000000
 
ion      s      p      d    tot
    1  0.000  0.112  0.114  0.226
    2  0.000  0.413  0.000  0.413
tot    0.000  0.525  0.114  0.640
 
band     4 # energy    3.22407818 # occ.  2.00000000
 
ion      s      p      d    tot
    1  0.000  0.112  0.114  0.226
    2  0.000  0.413  0.000  0.413
tot    0.000  0.525  0.114  0.640
 
band     5 # energy    3.60086245 # occ.  0.00000000
 
ion      s      p      d    tot
    1  0.413  0.000  0.000  0.413
    2  0.310  0.000  0.000  0.310
tot    0.723  0.000  0.000  0.723
 
band     6 # energy    7.34811753 # occ.  0.00000000
 
ion      s      p      d    tot
    1  0.000  0.577  0.007  0.585
    2  0.000  0.017  0.000  0.017
tot    0.000  0.594  0.007  0.601
 
band     7 # energy    7.34811765 # occ.  0.00000000
 
ion      s      p      d    tot
    1  0.000  0.577  0.007  0.585
    2  0.000  0.017  0.000  0.017
tot    0.000  0.594  0.007  0.601
 
band     8 # energy    7.34811766 # occ.  0.00000000
 
ion      s      p      d    tot
    1  0.000  0.577  0.007  0.585
    2  0.000  0.017  0.000  0.017
tot    0.000  0.594  0.007  0.601
 

 k-point     2 :    0.11111111-0.00000000 0.00000000     weight = 0.01097394

band     1 # energy   -7.69973018 # occ.  2.00000000
 
ion      s      p      d    tot
    1  0.285  0.007  0.001  0.293
    2  0.374  0.001  0.000  0.374
tot    0.659  0.007  0.001  0.667
 
band     2 # energy    1.87014342 # occ.  2.00000000
 
ion      s      p      d    tot
    1  0.192  0.096  0.062  0.351
    2  0.118  0.215  0.000  0.333
tot    0.310  0.311  0.062  0.683
 
band     3 # energy    3.09136011 # occ.  2.00000000
 
ion      s      p      d    tot
    1  0.000  0.137  0.104  0.240
    2  0.000  0.399  0.000  0.399
tot    0.000  0.536  0.104  0.640
 
band     4 # energy    3.09136050 # occ.  2.00000000
 
ion      s      p      d    tot
    1  0.000  0.137  0.104  0.240
    2  0.000  0.399  0.000  0.399
tot    0.000  0.536  0.104  0.640
 
band     5 # energy    4.55364442 # occ.  0.00000000
 
ion      s      p      d    tot
    1  0.245  0.075  0.023  0.343
    2  0.177  0.152  0.000  0.329
tot    0.422  0.227  0.023  0.672
 
band     6 # energy    7.40157118 # occ.  0.00000000
 
ion      s      p      d    tot
    1  0.032  0.421  0.031  0.484
    2  0.009  0.067  0.000  0.075
tot    0.041  0.488  0.031  0.560
 
band     7 # energy    7.55381080 # occ.  0.00000000
 
ion      s      p      d    tot
    1  0.000  0.554  0.016  0.570
    2  0.000  0.030  0.000  0.030
tot    0.000  0.584  0.016  0.601
 
band     8 # energy    7.55381091 # occ.  0.00000000
 
ion      s      p      d    tot
    1  0.000  0.554  0.016  0.570
    2  0.000  0.030  0.000  0.030
tot    0.000  0.584  0.016  0.601
 

 k-point     3 :    0.22222222-0.00000000 0.00000000     weight = 0.01097394

band     1 # energy   -7.37839967 # occ.  2.00000000
 
ion      s      p      d    tot
    1  0.251  0.025  0.004  0.280
    2  0.388  0.002  0.000  0.391
tot    0.640  0.027  0.004  0.670
 
band     2 # energy    0.28592893 # occ.  2.00000000
 
ion      s      p      d    tot
    1  0.243  0.124  0.040  0.407
    2  0.103  0.175  0.000  0.278
tot    0.346  0.299  0.040  0.685
 
band     3 # energy    2.80326861 # occ.  2.00000000
 
ion      s      p      d    tot
    1  0.000  0.183  0.082  0.266
    2  0.000  0.375  0.000  0.375
tot    0.000  0.559  0.082  0.641
 
band     4 # energy    2.80326896 # occ.  2.00000000
 
ion      s      p      d    tot
    1  0.000  0.183  0.082  0.266
    2  0.000  0.375  0.000  0.375
tot    0.000  0.559  0.082  0.641
 
band     5 # energy    4.87274454 # occ.  0.00000000
 
ion      s      p      d    tot
    1  0.262  0.137  0.008  0.407
    2  0.145  0.087  0.000  0.232
tot    0.407  0.224  0.008  0.639
 
band     6 # energy    7.93233909 # occ.  0.00000000
 
ion      s      p      d    tot
    1  0.000  0.494  0.043  0.537
    2  0.000  0.049  0.000  0.049
tot    0.000  0.542  0.043  0.586
 
band     7 # energy    7.93233927 # occ.  0.00000000
 
ion      s      p      d    tot
    1  0.000  0.494  0.043  0.537
    2  0.000  0.049  0.000  0.049
tot    0.000  0.542  0.043  0.586
 
band     8 # energy    8.09042541 # occ.  0.00000000
 
ion      s      p      d    tot
    1  0.052  0.203  0.054  0.309
    2  0.031  0.182  0.000  0.213
tot    0.083  0.384  0.054  0.521
 

 k-point     4 :    0.33333333-0.00000000-0.00000000     weight = 0.01097394

band     1 # energy   -6.92120956 # occ.  2.00000000
 
ion      s      p      d    tot
    1  0.196  0.049  0.009  0.255
    2  0.418  0.003  0.000  0.421
tot    0.615  0.052  0.009  0.676
 
band     2 # energy   -1.10523039 # occ.  2.00000000
 
ion      s      p      d    tot
    1  0.306  0.133  0.018  0.458
    2  0.070  0.152  0.000  0.221
tot    0.376  0.285  0.018  0.679
 
band     3 # energy    2.53156136 # occ.  2.00000000
 
ion      s      p      d    tot
    1  0.000  0.220  0.064  0.284
    2  0.000  0.359  0.000  0.359
tot    0.000  0.579  0.064  0.643
 
band     4 # energy    2.53156168 # occ.  2.00000000
 
ion      s      p      d    tot
    1  0.000  0.220  0.064  0.284
    2  0.000  0.359  0.000  0.359
tot    0.000  0.579  0.064  0.643
 
band     5 # energy    4.74029116 # occ.  0.00000000
 
ion      s      p      d    tot
    1  0.287  0.122  0.019  0.428
    2  0.131  0.054  0.000  0.185
tot    0.418  0.176  0.019  0.613
 
band     6 # energy    8.08880043 # occ.  0.00000000
 
ion      s      p      d    tot
    1  0.000  0.406  0.087  0.493
    2  0.000  0.050  0.000  0.050
tot    0.000  0.456  0.087  0.543
 
band     7 # energy    8.08880073 # occ.  0.00000000
 
ion      s      p      d    tot
    1  0.000  0.406  0.087  0.493
    2  0.000  0.050  0.000  0.050
tot    0.000  0.456  0.087  0.543
 
band     8 # energy    9.27435403 # occ.  0.00000000
 
ion      s      p      d    tot
    1  0.033  0.118  0.059  0.210
    2  0.026  0.257  0.000  0.283
tot    0.059  0.375  0.059  0.493
 

 k-point     5 :    0.44444444-0.00000000 0.00000000     weight = 0.01097394

band     1 # energy   -6.52852422 # occ.  2.00000000
 
ion      s      p      d    tot
    1  0.138  0.070  0.015  0.223
    2  0.456  0.001  0.000  0.458
tot    0.594  0.071  0.015  0.681
 
band     2 # energy   -1.98996283 # occ.  2.00000000
 
ion      s      p      d    tot
    1  0.369  0.129  0.003  0.500
    2  0.030  0.142  0.000  0.172
tot    0.399  0.271  0.003  0.673
 
band     3 # energy    2.37613005 # occ.  2.00000000
 
ion      s      p      d    tot
    1  0.000  0.239  0.054  0.293
    2  0.000  0.351  0.000  0.351
tot    0.000  0.590  0.054  0.644
 
band     4 # energy    2.37613035 # occ.  2.00000000
 
ion      s      p      d    tot
    1  0.000  0.239  0.054  0.293
    2  0.000  0.351  0.000  0.351
tot    0.000  0.590  0.054  0.644
 
band     5 # energy    4.61305501 # occ.  0.00000000
 
ion      s      p      d    tot
    1  0.303  0.099  0.028  0.430
    2  0.129  0.045  0.000  0.174
tot    0.431  0.144  0.028  0.604
 
band     6 # energy    8.05978729 # occ.  0.00000000
 
ion      s      p      d    tot
    1  0.000  0.351  0.116  0.467
    2  0.000  0.045  0.000  0.045
tot    0.000  0.397  0.116  0.512
 
band     7 # energy    8.05978766 # occ.  0.00000000
 
ion      s      p      d    tot
    1  0.000  0.351  0.116  0.467
    2  0.000  0.045  0.000  0.045
tot    0.000  0.397  0.116  0.512
 
band     8 # energy   10.07867316 # occ.  0.00000000
 
ion      s      p      d    tot
    1  0.004  0.074  0.094  0.172
    2  0.004  0.249  0.000  0.254
tot    0.008  0.324  0.094  0.425
 

 k-point     6 :    0.11111111 0.11111111-0.00000000     weight = 0.00823045

band     1 # energy   -7.66182635 # occ.  2.00000000
 
ion      s      p      d    tot
    1  0.281  0.009  0.001  0.291
    2  0.375  0.001  0.000  0.376
tot    0.656  0.010  0.001  0.667
 
band     2 # energy    1.81694163 # occ.  2.00000000
 
ion      s      p      d    tot
    1  0.231  0.066  0.064  0.362
    2  0.139  0.199  0.000  0.338
tot    0.370  0.266  0.064  0.700
 
band     3 # energy    2.85161490 # occ.  2.00000000
 
ion      s      p      d    tot
    1  0.000  0.171  0.090  0.261
    2  0.000  0.374  0.000  0.374
tot    0.000  0.545  0.090  0.635
 
band     4 # energy    2.85161506 # occ.  2.00000000
 
ion      s      p      d    tot
    1  0.000  0.171  0.090  0.261
    2  0.000  0.374  0.000  0.374
tot    0.000  0.545  0.090  0.635
 
band     5 # energy    4.96500199 # occ.  0.00000000
 
ion      s      p      d    tot
    1  0.216  0.040  0.039  0.295
    2  0.152  0.220  0.000  0.372
tot    0.368  0.260  0.039  0.667
 
band     6 # energy    6.84000161 # occ.  0.00000000
 
ion      s      p      d    tot
    1  0.036  0.483  0.013  0.532
    2  0.009  0.011  0.000  0.020
tot    0.045  0.494  0.013  0.552
 
band     7 # energy    7.88518963 # occ.  0.00000000
 
ion      s      p      d    tot
    1  0.000  0.512  0.029  0.541
    2  0.000  0.058  0.000  0.058
tot    0.000  0.570  0.029  0.599
 
band     8 # energy    7.88518966 # occ.  0.00000000
 
ion      s      p      d    tot
    1  0.000  0.512  0.029  0.541
    2  0.000  0.058  0.000  0.058
tot    0.000  0.570  0.029  0.599
 

 k-point     7 :    0.22222222 0.11111111-0.00000000     weight = 0.03292181

band     1 # energy   -7.40856469 # occ.  2.00000000
 
ion      s      p      d    tot
    1  0.255  0.023  0.003  0.281
    2  0.387  0.002  0.000  0.389
tot    0.641  0.026  0.003  0.670
 
band     2 # energy    0.63676801 # occ.  2.00000000
 
ion      s      p      d    tot
    1  0.261  0.095  0.048  0.405
    2  0.120  0.176  0.000  0.297
tot    0.382  0.272  0.048  0.702
 
band     3 # energy    2.51627514 # occ.  2.00000000
 
ion      s      p      d    tot
    1  0.000  0.213  0.070  0.283
    2  0.000  0.349  0.000  0.349
tot    0.000  0.562  0.070  0.632
 
band     4 # energy    2.55394598 # occ.  2.00000000
 
ion      s      p      d    tot
    1  0.021  0.195  0.072  0.288
    2  0.009  0.338  0.000  0.346
tot    0.029  0.533  0.072  0.634
 
band     5 # energy    5.48311404 # occ.  0.00000000
 
ion      s      p      d    tot
    1  0.223  0.078  0.027  0.329
    2  0.121  0.197  0.000  0.318
tot    0.345  0.275  0.027  0.647
 
band     6 # energy    6.81851703 # occ.  0.00000000
 
ion      s      p      d    tot
    1  0.040  0.401  0.031  0.471
    2  0.024  0.041  0.000  0.065
tot    0.064  0.442  0.031  0.537
 
band     7 # energy    8.37756696 # occ.  0.00000000
 
ion      s      p      d    tot
    1  0.007  0.385  0.054  0.446
    2  0.004  0.102  0.000  0.106
tot    0.011  0.487  0.054  0.553
 
band     8 # energy    8.38755381 # occ.  0.00000000
 
ion      s      p      d    tot
    1  0.000  0.458  0.050  0.508
    2  0.000  0.082  0.000  0.082
tot    0.000  0.540  0.050  0.590
 

 k-point     8 :    0.33333333 0.11111111-0.00000000     weight = 0.03292181

band     1 # energy   -6.98955570 # occ.  2.00000000
 
ion      s      p      d    tot
    1  0.205  0.047  0.008  0.259
    2  0.412  0.003  0.000  0.415
tot    0.617  0.050  0.008  0.674
 
band     2 # energy   -0.71076061 # occ.  2.00000000
 
ion      s      p      d    tot
    1  0.311  0.117  0.026  0.453
    2  0.086  0.155  0.000  0.241
tot    0.397  0.271  0.026  0.694
 
band     3 # energy    2.16708923 # occ.  2.00000000
 
ion      s      p      d    tot
    1  0.042  0.215  0.056  0.312
    2  0.015  0.304  0.000  0.318
tot    0.057  0.519  0.056  0.631
 
band     4 # energy    2.25587627 # occ.  2.00000000
 
ion      s      p      d    tot
    1  0.000  0.243  0.055  0.297
    2  0.000  0.336  0.000  0.336
tot    0.000  0.579  0.055  0.633
 
band     5 # energy    5.46171907 # occ.  0.00000000
 
ion      s      p      d    tot
    1  0.229  0.112  0.032  0.373
    2  0.098  0.145  0.000  0.244
tot    0.327  0.258  0.032  0.617
 
band     6 # energy    7.42755835 # occ.  0.00000000
 
ion      s      p      d    tot
    1  0.032  0.367  0.053  0.452
    2  0.021  0.069  0.000  0.090
tot    0.053  0.435  0.053  0.542
 
band     7 # energy    8.62485640 # occ.  0.00000000
 
ion      s      p      d    tot
    1  0.000  0.388  0.087  0.475
    2  0.000  0.081  0.000  0.081
tot    0.000  0.469  0.087  0.556
 
band     8 # energy    8.76625664 # occ.  0.00000000
 
ion      s      p      d    tot
    1  0.016  0.182  0.099  0.297
    2  0.016  0.145  0.000  0.161
tot    0.032  0.327  0.099  0.458
 

 k-point     9 :    0.44444444 0.11111111-0.00000000     weight = 0.03292181

band     1 # energy   -6.55101997 # occ.  2.00000000
 
ion      s      p      d    tot
    1  0.142  0.070  0.014  0.227
    2  0.451  0.002  0.000  0.453
tot    0.593  0.073  0.014  0.680
 
band     2 # energy   -1.74382061 # occ.  2.00000000
 
ion      s      p      d    tot
    1  0.375  0.118  0.007  0.500
    2  0.043  0.143  0.000  0.186
tot    0.418  0.261  0.007  0.686
 
band     3 # energy    1.82579765 # occ.  2.00000000
 
ion      s      p      d    tot
    1  0.052  0.230  0.045  0.326
    2  0.017  0.284  0.000  0.301
tot    0.069  0.513  0.045  0.627
 
band     4 # energy    2.15444636 # occ.  2.00000000
 
ion      s      p      d    tot
    1  0.000  0.256  0.047  0.303
    2  0.000  0.334  0.000  0.334
tot    0.000  0.590  0.047  0.637
 
band     5 # energy    5.32723366 # occ.  0.00000000
 
ion      s      p      d    tot
    1  0.240  0.108  0.038  0.386
    2  0.096  0.125  0.000  0.221
tot    0.336  0.233  0.038  0.607
 
band     6 # energy    7.68115307 # occ.  0.00000000
 
ion      s      p      d    tot
    1  0.013  0.299  0.099  0.412
    2  0.006  0.058  0.000  0.064
tot    0.020  0.357  0.099  0.476
 
band     7 # energy    8.52758027 # occ.  0.00000000
 
ion      s      p      d    tot
    1  0.000  0.336  0.116  0.452
    2  0.000  0.067  0.000  0.067
tot    0.000  0.403  0.116  0.520
 
band     8 # energy    9.65654954 # occ.  0.00000000
 
ion      s      p      d    tot
    1  0.020  0.140  0.099  0.260
    2  0.017  0.212  0.000  0.229
tot    0.037  0.352  0.099  0.488
 

 k-point    10 :   -0.44444444 0.11111111 0.00000000     weight = 0.03292181

band     1 # energy   -6.39700620 # occ.  2.00000000
 
ion      s      p      d    tot
    1  0.115  0.079  0.017  0.211
    2  0.469  0.001  0.000  0.471
tot    0.584  0.080  0.017  0.682
 
band     2 # energy   -2.05086264 # occ.  2.00000000
 
ion      s      p      d    tot
    1  0.402  0.116  0.001  0.519
    2  0.023  0.141  0.000  0.164
tot    0.425  0.257  0.001  0.683
 
band     3 # energy    1.63816875 # occ.  2.00000000
 
ion      s      p      d    tot
    1  0.052  0.240  0.039  0.331
    2  0.017  0.275  0.000  0.292
tot    0.069  0.515  0.039  0.623
 
band     4 # energy    2.23378992 # occ.  2.00000000
 
ion      s      p      d    tot
    1  0.000  0.252  0.049  0.300
    2  0.000  0.341  0.000  0.341
tot    0.000  0.592  0.049  0.641
 
band     5 # energy    5.28397290 # occ.  0.00000000
 
ion      s      p      d    tot
    1  0.247  0.109  0.037  0.393
    2  0.098  0.117  0.000  0.215
tot    0.345  0.226  0.037  0.608
 
band     6 # energy    7.77654568 # occ.  0.00000000
 
ion      s      p      d    tot
    1  0.008  0.262  0.117  0.386
    2  0.004  0.060  0.000  0.063
tot    0.011  0.322  0.117  0.450
 
band     7 # energy    8.36546090 # occ.  0.00000000
 
ion      s      p      d    tot
    1  0.000  0.336  0.118  0.453
    2  0.000  0.057  0.000  0.057
tot    0.000  0.393  0.118  0.511
 
band     8 # energy   10.20452163 # occ.  0.00000000
 
ion      s      p      d    tot
    1  0.017  0.119  0.099  0.235
    2  0.007  0.267  0.000  0.274
tot    0.024  0.387  0.099  0.509
 

 k-point    11 :   -0.33333333 0.11111111 0.00000000     weight = 0.03292181

band     1 # energy   -6.68592206 # occ.  2.00000000
 
ion      s      p      d    tot
    1  0.163  0.063  0.012  0.238
    2  0.437  0.003  0.000  0.440
tot    0.600  0.066  0.012  0.678
 
band     2 # energy   -1.45335026 # occ.  2.00000000
 
ion      s      p      d    tot
    1  0.353  0.120  0.012  0.485
    2  0.058  0.146  0.000  0.203
tot    0.411  0.265  0.012  0.689
 
band     3 # energy    1.65517275 # occ.  2.00000000
 
ion      s      p      d    tot
    1  0.044  0.244  0.040  0.328
    2  0.013  0.277  0.000  0.290
tot    0.057  0.521  0.040  0.619
 
band     4 # energy    2.47056638 # occ.  2.00000000
 
ion      s      p      d    tot
    1  0.000  0.229  0.060  0.289
    2  0.000  0.356  0.000  0.356
tot    0.000  0.585  0.060  0.644
 
band     5 # energy    5.35569958 # occ.  0.00000000
 
ion      s      p      d    tot
    1  0.246  0.120  0.030  0.396
    2  0.102  0.119  0.000  0.221
tot    0.349  0.240  0.030  0.618
 
band     6 # energy    7.96076162 # occ.  0.00000000
 
ion      s      p      d    tot
    1  0.007  0.282  0.110  0.399
    2  0.005  0.066  0.000  0.071
tot    0.012  0.348  0.110  0.470
 
band     7 # energy    8.23953483 # occ.  0.00000000
 
ion      s      p      d    tot
    1  0.000  0.395  0.089  0.484
    2  0.000  0.051  0.000  0.051
tot    0.000  0.446  0.089  0.536
 
band     8 # energy    9.41016607 # occ.  0.00000000
 
ion      s      p      d    tot
    1  0.031  0.128  0.075  0.234
    2  0.023  0.238  0.000  0.261
tot    0.055  0.365  0.075  0.495
 

 k-point    12 :   -0.22222222 0.11111111-0.00000000     weight = 0.03292181

band     1 # energy   -7.14399132 # occ.  2.00000000
 
ion      s      p      d    tot
    1  0.224  0.038  0.006  0.268
    2  0.402  0.003  0.000  0.405
tot    0.626  0.041  0.006  0.673
 
band     2 # energy   -0.28492992 # occ.  2.00000000
 
ion      s      p      d    tot
    1  0.290  0.114  0.033  0.437
    2  0.099  0.161  0.000  0.260
tot    0.389  0.275  0.033  0.697
 
band     3 # energy    1.90948977 # occ.  2.00000000
 
ion      s      p      d    tot
    1  0.028  0.241  0.048  0.317
    2  0.007  0.292  0.000  0.299
tot    0.034  0.533  0.048  0.616
 
band     4 # energy    2.79277611 # occ.  2.00000000
 
ion      s      p      d    tot
    1  0.000  0.189  0.079  0.268
    2  0.000  0.378  0.000  0.378
tot    0.000  0.567  0.079  0.646
 
band     5 # energy    5.44534065 # occ.  0.00000000
 
ion      s      p      d    tot
    1  0.240  0.131  0.016  0.387
    2  0.116  0.138  0.000  0.254
tot    0.356  0.268  0.016  0.641
 
band     6 # energy    7.83512027 # occ.  0.00000000
 
ion      s      p      d    tot
    1  0.034  0.297  0.077  0.408
    2  0.025  0.104  0.000  0.128
tot    0.059  0.400  0.077  0.536
 
band     7 # energy    8.01435567 # occ.  0.00000000
 
ion      s      p      d    tot
    1  0.000  0.495  0.043  0.539
    2  0.000  0.042  0.000  0.042
tot    0.000  0.538  0.043  0.581
 
band     8 # energy    8.52931652 # occ.  0.00000000
 
ion      s      p      d    tot
    1  0.015  0.224  0.071  0.310
    2  0.010  0.151  0.000  0.161
tot    0.025  0.375  0.071  0.471
 

 k-point    13 :   -0.11111111 0.11111111-0.00000000     weight = 0.01646091

band     1 # energy   -7.51656064 # occ.  2.00000000
 
ion      s      p      d    tot
    1  0.266  0.017  0.002  0.286
    2  0.381  0.002  0.000  0.383
tot    0.648  0.019  0.002  0.669
 
band     2 # energy    0.99472582 # occ.  2.00000000
 
ion      s      p      d    tot
    1  0.239  0.097  0.052  0.389
    2  0.123  0.186  0.000  0.308
tot    0.362  0.283  0.052  0.697
 
band     3 # energy    2.44550483 # occ.  2.00000000
 
ion      s      p      d    tot
    1  0.009  0.212  0.069  0.290
    2  0.000  0.332  0.000  0.333
tot    0.009  0.544  0.069  0.623
 
band     4 # energy    3.06031208 # occ.  2.00000000
 
ion      s      p      d    tot
    1  0.000  0.146  0.098  0.245
    2  0.000  0.400  0.000  0.400
tot    0.000  0.546  0.098  0.645
 
band     5 # energy    5.16703820 # occ.  0.00000000
 
ion      s      p      d    tot
    1  0.232  0.099  0.016  0.348
    2  0.148  0.168  0.000  0.316
tot    0.380  0.268  0.016  0.664
 
band     6 # energy    7.30551228 # occ.  0.00000000
 
ion      s      p      d    tot
    1  0.044  0.344  0.051  0.439
    2  0.016  0.078  0.000  0.094
tot    0.060  0.423  0.051  0.534
 
band     7 # energy    7.65854746 # occ.  0.00000000
 
ion      s      p      d    tot
    1  0.000  0.555  0.018  0.573
    2  0.000  0.027  0.000  0.027
tot    0.000  0.582  0.018  0.600
 
band     8 # energy    8.21984846 # occ.  0.00000000
 
ion      s      p      d    tot
    1  0.003  0.416  0.043  0.462
    2  0.003  0.099  0.000  0.102
tot    0.006  0.515  0.043  0.564
 

 k-point    14 :    0.22222222 0.22222222-0.00000000     weight = 0.00823045

band     1 # energy   -7.22884636 # occ.  2.00000000
 
ion      s      p      d    tot
    1  0.233  0.035  0.005  0.273
    2  0.395  0.003  0.000  0.398
tot    0.629  0.038  0.005  0.671
 
band     2 # energy    0.29458372 # occ.  2.00000000
 
ion      s      p      d    tot
    1  0.324  0.060  0.049  0.434
    2  0.130  0.162  0.000  0.292
tot    0.454  0.222  0.049  0.725
 
band     3 # energy    2.13799103 # occ.  2.00000000
 
ion      s      p      d    tot
    1  0.000  0.249  0.053  0.302
    2  0.000  0.325  0.000  0.325
tot    0.000  0.574  0.053  0.627
 
band     4 # energy    2.13799117 # occ.  2.00000000
 
ion      s      p      d    tot
    1  0.000  0.249  0.053  0.302
    2  0.000  0.325  0.000  0.325
tot    0.000  0.574  0.053  0.627
 
band     5 # energy    5.90611339 # occ.  0.00000000
 
ion      s      p      d    tot
    1  0.235  0.099  0.059  0.394
    2  0.008  0.148  0.000  0.156
tot    0.243  0.247  0.059  0.549
 
band     6 # energy    6.15178879 # occ.  0.00000000
 
ion      s      p      d    tot
    1  0.029  0.310  0.015  0.354
    2  0.112  0.091  0.000  0.203
tot    0.142  0.401  0.015  0.558
 
band     7 # energy    9.10201449 # occ.  0.00000000
 
ion      s      p      d    tot
    1  0.000  0.419  0.059  0.479
    2  0.000  0.113  0.000  0.113
tot    0.000  0.533  0.059  0.592
 
band     8 # energy    9.10201454 # occ.  0.00000000
 
ion      s      p      d    tot
    1  0.000  0.419  0.059  0.479
    2  0.000  0.113  0.000  0.113
tot    0.000  0.533  0.059  0.592
 

 k-point    15 :    0.33333333 0.22222222 0.00000000     weight = 0.03292181

band     1 # energy   -6.87314407 # occ.  2.00000000
 
ion      s      p      d    tot
    1  0.188  0.056  0.009  0.253
    2  0.418  0.004  0.000  0.422
tot    0.606  0.060  0.009  0.674
 
band     2 # energy   -0.61637013 # occ.  2.00000000
 
ion      s      p      d    tot
    1  0.375  0.068  0.033  0.476
    2  0.102  0.149  0.000  0.252
tot    0.477  0.217  0.033  0.728
 
band     3 # energy    1.67895381 # occ.  2.00000000
 
ion      s      p      d    tot
    1  0.019  0.264  0.039  0.322
    2  0.005  0.289  0.000  0.293
tot    0.024  0.552  0.039  0.615
 
band     4 # energy    1.85148571 # occ.  2.00000000
 
ion      s      p      d    tot
    1  0.000  0.274  0.040  0.313
    2  0.000  0.312  0.000  0.312
tot    0.000  0.585  0.040  0.625
 
band     5 # energy    5.86279626 # occ.  0.00000000
 
ion      s      p      d    tot
    1  0.151  0.176  0.065  0.391
    2  0.025  0.097  0.000  0.122
tot    0.176  0.273  0.065  0.513
 
band     6 # energy    6.43866237 # occ.  0.00000000
 
ion      s      p      d    tot
    1  0.107  0.183  0.046  0.336
    2  0.071  0.140  0.000  0.211
tot    0.178  0.323  0.046  0.547
 
band     7 # energy    9.09374513 # occ.  0.00000000
 
ion      s      p      d    tot
    1  0.005  0.235  0.128  0.368
    2  0.017  0.085  0.000  0.102
tot    0.022  0.320  0.128  0.470
 
band     8 # energy    9.59828099 # occ.  0.00000000
 
ion      s      p      d    tot
    1  0.000  0.369  0.083  0.452
    2  0.000  0.121  0.000  0.121
tot    0.000  0.489  0.083  0.573
 

 k-point    16 :    0.44444444 0.22222222 0.00000000     weight = 0.03292181

band     1 # energy   -6.44837489 # occ.  2.00000000
 
ion      s      p      d    tot
    1  0.123  0.081  0.015  0.219
    2  0.456  0.003  0.000  0.460
tot    0.580  0.084  0.015  0.679
 
band     2 # energy   -1.51831536 # occ.  2.00000000
 
ion      s      p      d    tot
    1  0.438  0.074  0.014  0.525
    2  0.057  0.140  0.000  0.197
tot    0.495  0.214  0.014  0.723
 
band     3 # energy    1.11623934 # occ.  2.00000000
 
ion      s      p      d    tot
    1  0.042  0.265  0.030  0.337
    2  0.010  0.252  0.000  0.262
tot    0.052  0.517  0.030  0.599
 
band     4 # energy    1.74636590 # occ.  2.00000000
 
ion      s      p      d    tot
    1  0.000  0.284  0.033  0.317
    2  0.000  0.309  0.000  0.309
tot    0.000  0.594  0.033  0.627
 
band     5 # energy    5.81718975 # occ.  0.00000000
 
ion      s      p      d    tot
    1  0.155  0.144  0.072  0.371
    2  0.048  0.103  0.000  0.150
tot    0.203  0.246  0.072  0.521
 
band     6 # energy    7.25479768 # occ.  0.00000000
 
ion      s      p      d    tot
    1  0.103  0.153  0.061  0.317
    2  0.029  0.176  0.000  0.205
tot    0.131  0.330  0.061  0.522
 
band     7 # energy    9.01577088 # occ.  0.00000000
 
ion      s      p      d    tot
    1  0.002  0.214  0.142  0.359
    2  0.031  0.067  0.000  0.098
tot    0.033  0.281  0.142  0.457
 
band     8 # energy    9.57927535 # occ.  0.00000000
 
ion      s      p      d    tot
    1  0.000  0.313  0.114  0.426
    2  0.000  0.104  0.000  0.104
tot    0.000  0.417  0.114  0.530
 

 k-point    17 :   -0.44444444 0.22222222 0.00000000     weight = 0.03292181

band     1 # energy   -6.19672464 # occ.  2.00000000
 
ion      s      p      d    tot
    1  0.076  0.095  0.020  0.192
    2  0.488  0.001  0.000  0.490
tot    0.565  0.097  0.020  0.681
 
band     2 # energy   -1.97134979 # occ.  2.00000000
 
ion      s      p      d    tot
    1  0.484  0.073  0.003  0.560
    2  0.021  0.137  0.000  0.159
tot    0.505  0.211  0.003  0.719
 
band     3 # energy    0.71242128 # occ.  2.00000000
 
ion      s      p      d    tot
    1  0.049  0.267  0.025  0.341
    2  0.012  0.234  0.000  0.247
tot    0.061  0.502  0.025  0.587
 
band     4 # energy    1.84675318 # occ.  2.00000000
 
ion      s      p      d    tot
    1  0.000  0.280  0.035  0.315
    2  0.000  0.316  0.000  0.316
tot    0.000  0.596  0.035  0.631
 
band     5 # energy    5.85142582 # occ.  0.00000000
 
ion      s      p      d    tot
    1  0.173  0.139  0.068  0.380
    2  0.055  0.102  0.000  0.158
tot    0.229  0.241  0.068  0.538
 
band     6 # energy    7.76637068 # occ.  0.00000000
 
ion      s      p      d    tot
    1  0.075  0.121  0.074  0.269
    2  0.013  0.185  0.000  0.199
tot    0.088  0.306  0.074  0.468
 
band     7 # energy    9.30779146 # occ.  0.00000000
 
ion      s      p      d    tot
    1  0.000  0.304  0.115  0.420
    2  0.000  0.091  0.000  0.091
tot    0.000  0.395  0.115  0.511
 
band     8 # energy    9.71568728 # occ.  0.00000000
 
ion      s      p      d    tot
    1  0.018  0.182  0.149  0.348
    2  0.027  0.136  0.000  0.163
tot    0.045  0.317  0.149  0.511
 

 k-point    18 :   -0.33333333 0.22222222 0.00000000     weight = 0.03292181

band     1 # energy   -6.34897239 # occ.  2.00000000
 
ion      s      p      d    tot
    1  0.107  0.084  0.017  0.209
    2  0.469  0.002  0.000  0.471
tot    0.576  0.087  0.017  0.680
 
band     2 # energy   -1.70172886 # occ.  2.00000000
 
ion      s      p      d    tot
    1  0.454  0.079  0.008  0.541
    2  0.043  0.138  0.000  0.181
tot    0.497  0.217  0.008  0.722
 
band     3 # energy    0.61673209 # occ.  2.00000000
 
ion      s      p      d    tot
    1  0.041  0.275  0.023  0.338
    2  0.008  0.232  0.000  0.240
tot    0.048  0.508  0.023  0.579
 
band     4 # energy    2.12617078 # occ.  2.00000000
 
ion      s      p      d    tot
    1  0.000  0.260  0.045  0.305
    2  0.000  0.332  0.000  0.332
tot    0.000  0.592  0.045  0.638
 
band     5 # energy    5.99493575 # occ.  0.00000000
 
ion      s      p      d    tot
    1  0.199  0.145  0.052  0.396
    2  0.064  0.116  0.000  0.181
tot    0.263  0.261  0.052  0.577
 
band     6 # energy    7.97680736 # occ.  0.00000000
 
ion      s      p      d    tot
    1  0.046  0.125  0.083  0.254
    2  0.010  0.164  0.000  0.174
tot    0.056  0.289  0.083  0.428
 
band     7 # energy    8.97652030 # occ.  0.00000000
 
ion      s      p      d    tot
    1  0.000  0.358  0.087  0.446
    2  0.000  0.082  0.000  0.082
tot    0.000  0.441  0.087  0.528
 
band     8 # energy    9.44086256 # occ.  0.00000000
 
ion      s      p      d    tot
    1  0.030  0.149  0.122  0.301
    2  0.033  0.195  0.000  0.228
tot    0.063  0.344  0.122  0.529
 

 k-point    19 :   -0.22222222 0.22222222 0.00000000     weight = 0.01646091

band     1 # energy   -6.75494958 # occ.  2.00000000
 
ion      s      p      d    tot
    1  0.173  0.060  0.011  0.244
    2  0.429  0.004  0.000  0.432
tot    0.602  0.064  0.011  0.676
 
band     2 # energy   -0.98067744 # occ.  2.00000000
 
ion      s      p      d    tot
    1  0.377  0.090  0.022  0.489
    2  0.085  0.146  0.000  0.231
tot    0.462  0.236  0.022  0.720
 
band     3 # energy    0.98372165 # occ.  2.00000000
 
ion      s      p      d    tot
    1  0.031  0.276  0.027  0.334
    2  0.002  0.247  0.000  0.250
tot    0.033  0.523  0.027  0.583
 
band     4 # energy    2.49826676 # occ.  2.00000000
 
ion      s      p      d    tot
    1  0.000  0.225  0.062  0.287
    2  0.000  0.356  0.000  0.356
tot    0.000  0.582  0.062  0.644
 
band     5 # energy    6.02295900 # occ.  0.00000000
 
ion      s      p      d    tot
    1  0.230  0.144  0.025  0.399