<?xml version="1.0" encoding="ISO-8859-1"?>
<modeling>
 <generator>
  <i name="program" type="string">vasp </i>
  <i name="version" type="string">5.4.4.18Apr17-6-g9f103f2a35  </i>
  <i name="subversion" type="string">(build Apr 10 2018 17:34:00) complex            parallel </i>
  <i name="platform" type="string">LinuxIFC </i>
  <i name="date" type="string">2018 10 04 </i>
  <i name="time" type="string">08:26:01 </i>
 </generator>
 <incar>
  <i type="string" name="SYSTEM"> InP</i>
  <i type="string" name="PREC">accurate  ! calcululation level (change</i>
  <i type="string" name="ALGO"> NORMAL    ! A Davidson blocked iteratio</i>
  <i type="logical" name="ADDGRID"> T  </i>
  <i type="int" name="ISPIN">     1</i>
  <i name="AMIX">      0.20000000</i>
  <i name="BMIX">      0.00100000</i>
  <i type="int" name="NELM">   100</i>
  <i type="int" name="NELMDL">    -8</i>
  <i type="int" name="NELMIN">     6</i>
  <i type="int" name="IBRION">     2</i>
  <i name="EDIFF">      0.00000010</i>
  <i name="EDIFFG">     -0.00100000</i>
  <i type="int" name="NSW">   100</i>
  <i type="int" name="ISIF">     3</i>
  <i name="ENCUT">    510.00000000</i>
  <i name="POTIM">      0.50000000</i>
  <i type="int" name="NEDOS">    11</i>
  <i type="logical" name="LREAL"> F  </i>
  <i type="logical" name="LPLANE"> T  </i>
  <i type="int" name="ISMEAR">     0</i>
  <i name="SIGMA">      0.01000000</i>
  <i type="int" name="NWRITE">     1</i>
  <i type="int" name="LMAXMIX">     6</i>
  <i type="logical" name="LWAVE"> F  </i>
  <i type="logical" name="LCHARG"> F  </i>
  <i type="int" name="LORBIT">    10</i>
  <i type="logical" name="LASPH"> T  </i>
  <v type="int" name="KPOINT_BSE">    -1     0     0     0</v>
  <i type="int" name="NELM">   100</i>
  <i type="logical" name="LASPH"> T  </i>
 </incar>
 <structure name="primitive_cell" >
  <crystal>
   <varray name="basis" >
    <v>       0.00000000       3.00019994       3.00019994 </v>
    <v>       3.00019994       0.00000000       3.00019994 </v>
    <v>       3.00019994       3.00019994       0.00000000 </v>
   </varray>
   <i name="volume">     54.01079745 </i>
   <varray name="rec_basis" >
    <v>      -0.16665556       0.16665556       0.16665556 </v>
    <v>       0.16665556      -0.16665556       0.16665556 </v>
    <v>       0.16665556       0.16665556      -0.16665556 </v>
   </varray>
  </crystal>
  <varray name="positions" >
   <v>       0.00000000       0.00000000       0.00000000 </v>
   <v>       0.25000000       0.25000000       0.25000000 </v>
  </varray>
 </structure>
 <varray name="primitive_index" >
  <v type="int" >        1 </v>
  <v type="int" >        2 </v>
 </varray>
 <kpoints>
  <generation param="Auto">
   <i name="subdivisionlength">     30.00000000 </i>
   <v type="int" name="divisions">       9        9        9 </v>
   <v name="usershift">      0.00000000       0.00000000       0.00000000 </v>
   <v name="genvec1">      0.11111111       0.00000000      -0.00000000 </v>
   <v name="genvec2">      0.00000000       0.11111111       0.00000000 </v>
   <v name="genvec3">     -0.00000000      -0.00000000       0.11111111 </v>
   <v name="shift">      0.00000000       0.00000000       0.00000000 </v>
  </generation>
  <varray name="kpointlist" >
   <v>       0.00000000       0.00000000       0.00000000 </v>
   <v>       0.11111111      -0.00000000       0.00000000 </v>
   <v>       0.22222222      -0.00000000       0.00000000 </v>
   <v>       0.33333333      -0.00000000      -0.00000000 </v>
   <v>       0.44444444      -0.00000000       0.00000000 </v>
   <v>       0.11111111       0.11111111      -0.00000000 </v>
   <v>       0.22222222       0.11111111      -0.00000000 </v>
   <v>       0.33333333       0.11111111      -0.00000000 </v>
   <v>       0.44444444       0.11111111      -0.00000000 </v>
   <v>      -0.44444444       0.11111111       0.00000000 </v>
   <v>      -0.33333333       0.11111111       0.00000000 </v>
   <v>      -0.22222222       0.11111111      -0.00000000 </v>
   <v>      -0.11111111       0.11111111      -0.00000000 </v>
   <v>       0.22222222       0.22222222      -0.00000000 </v>
   <v>       0.33333333       0.22222222       0.00000000 </v>
   <v>       0.44444444       0.22222222       0.00000000 </v>
   <v>      -0.44444444       0.22222222       0.00000000 </v>
   <v>      -0.33333333       0.22222222       0.00000000 </v>
   <v>      -0.22222222       0.22222222       0.00000000 </v>
   <v>       0.33333333       0.33333333      -0.00000000 </v>
   <v>       0.44444444       0.33333333      -0.00000000 </v>
   <v>      -0.44444444       0.33333333      -0.00000000 </v>
   <v>      -0.33333333       0.33333333       0.00000000 </v>
   <v>       0.44444444       0.44444444      -0.00000000 </v>
   <v>      -0.44444444       0.44444444       0.00000000 </v>
   <v>       0.33333333       0.22222222       0.11111111 </v>
   <v>       0.44444444       0.22222222       0.11111111 </v>
   <v>      -0.44444444       0.22222222       0.11111111 </v>
   <v>       0.44444444       0.33333333       0.11111111 </v>
   <v>      -0.44444444       0.33333333       0.11111111 </v>
   <v>      -0.33333333       0.33333333       0.11111111 </v>
   <v>      -0.22222222       0.33333333       0.11111111 </v>
   <v>      -0.44444444       0.44444444       0.11111111 </v>
   <v>      -0.33333333       0.44444444       0.11111111 </v>
   <v>      -0.33333333       0.44444444       0.22222222 </v>
  </varray>
  <varray name="weights" >
   <v>       0.00137174 </v>
   <v>       0.01097394 </v>
   <v>       0.01097394 </v>
   <v>       0.01097394 </v>
   <v>       0.01097394 </v>
   <v>       0.00823045 </v>
   <v>       0.03292181 </v>
   <v>       0.03292181 </v>
   <v>       0.03292181 </v>
   <v>       0.03292181 </v>
   <v>       0.03292181 </v>
   <v>       0.03292181 </v>
   <v>       0.01646091 </v>
   <v>       0.00823045 </v>
   <v>       0.03292181 </v>
   <v>       0.03292181 </v>
   <v>       0.03292181 </v>
   <v>       0.03292181 </v>
   <v>       0.01646091 </v>
   <v>       0.00823045 </v>
   <v>       0.03292181 </v>
   <v>       0.03292181 </v>
   <v>       0.01646091 </v>
   <v>       0.00823045 </v>
   <v>       0.01646091 </v>
   <v>       0.03292181 </v>
   <v>       0.06584362 </v>
   <v>       0.06584362 </v>
   <v>       0.03292181 </v>
   <v>       0.06584362 </v>
   <v>       0.06584362 </v>
   <v>       0.03292181 </v>
   <v>       0.03292181 </v>
   <v>       0.03292181 </v>
   <v>       0.03292181 </v>
  </varray>
 </kpoints>
 <parameters>
  <separator name="general" >
   <i type="string" name="SYSTEM">InP</i>
   <i type="logical" name="LCOMPAT"> F  </i>
  </separator>
  <separator name="electronic" >
   <i type="string" name="PREC">accura</i>
   <i name="ENMAX">    510.00000000</i>
   <i name="ENAUG">    342.92400000</i>
   <i name="EDIFF">      0.00000010</i>
   <i type="int" name="IALGO">    38</i>
   <i type="int" name="IWAVPR">    11</i>
   <i type="int" name="NBANDS">     8</i>
   <i name="NELECT">      8.00000000</i>
   <i type="int" name="TURBO">     0</i>
   <i type="int" name="IRESTART">     0</i>
   <i type="int" name="NREBOOT">     0</i>
   <i type="int" name="NMIN">     0</i>
   <i name="EREF">      0.00000000</i>
   <separator name="electronic smearing" >
    <i type="int" name="ISMEAR">     0</i>
    <i name="SIGMA">      0.01000000</i>
    <i name="KSPACING">      0.50000000</i>
    <i type="logical" name="KGAMMA"> T  </i>
   </separator>
   <separator name="electronic projectors" >
    <i type="logical" name="LREAL"> F  </i>
    <v name="ROPT">      0.00000000      0.00000000</v>
    <i type="int" name="LMAXPAW">  -100</i>
    <i type="int" name="LMAXMIX">     6</i>
    <i type="logical" name="NLSPLINE"> F  </i>
   </separator>
   <separator name="electronic startup" >
    <i type="int" name="ISTART">     0</i>
    <i type="int" name="ICHARG">     2</i>
    <i type="int" name="INIWAV">     1</i>
   </separator>
   <separator name="electronic spin" >
    <i type="int" name="ISPIN">     1</i>
    <i type="logical" name="LNONCOLLINEAR"> F  </i>
    <v name="MAGMOM">      1.00000000      1.00000000</v>
    <i name="NUPDOWN">     -1.00000000</i>
    <i type="logical" name="LSORBIT"> F  </i>
    <v name="SAXIS">      0.00000000      0.00000000      1.00000000</v>
    <i type="logical" name="LSPIRAL"> F  </i>
    <v name="QSPIRAL">      0.00000000      0.00000000      0.00000000</v>
    <i type="logical" name="LZEROZ"> F  </i>
   </separator>
   <separator name="electronic exchange-correlation" >
    <i type="logical" name="LASPH"> T  </i>
    <i type="logical" name="LMETAGGA"> F  </i>
   </separator>
   <separator name="electronic convergence" >
    <i type="int" name="NELM">   100</i>
    <i type="int" name="NELMDL">    -8</i>
    <i type="int" name="NELMIN">     6</i>
    <i name="ENINI">    510.00000000</i>
    <separator name="electronic convergence detail" >
     <i type="logical" name="LDIAG"> T  </i>
     <i type="logical" name="LSUBROT"> F  </i>
     <i name="WEIMIN">      0.00100000</i>
     <i name="EBREAK">      0.00000000</i>
     <i name="DEPER">      0.30000000</i>
     <i type="int" name="NRMM">     4</i>
     <i name="TIME">      0.40000000</i>
    </separator>
   </separator>
   <separator name="electronic mixer" >
    <i name="AMIX">      0.20000000</i>
    <i name="BMIX">      0.00100000</i>
    <i name="AMIN">      0.10000000</i>
    <i name="AMIX_MAG">      0.80000000</i>
    <i name="BMIX_MAG">      0.00100000</i>
    <separator name="electronic mixer details" >
     <i type="int" name="IMIX">     4</i>
     <i type="logical" name="MIXFIRST"> F  </i>
     <i type="int" name="MAXMIX">   -45</i>
     <i name="WC">    100.00000000</i>
     <i type="int" name="INIMIX">     1</i>
     <i type="int" name="MIXPRE">     1</i>
     <i type="int" name="MREMOVE">     5</i>
    </separator>
   </separator>
   <separator name="electronic dipolcorrection" >
    <i type="logical" name="LDIPOL"> F  </i>
    <i type="logical" name="LMONO"> F  </i>
    <i type="int" name="IDIPOL">     0</i>
    <i name="EPSILON">      1.00000000</i>
    <v name="DIPOL">   -100.00000000   -100.00000000   -100.00000000</v>
    <i name="EFIELD">      0.00000000</i>
   </separator>
  </separator>
  <separator name="grids" >
   <i type="int" name="NGX">    32</i>
   <i type="int" name="NGY">    32</i>
   <i type="int" name="NGZ">    32</i>
   <i type="int" name="NGXF">    64</i>
   <i type="int" name="NGYF">    64</i>
   <i type="int" name="NGZF">    64</i>
   <i type="logical" name="ADDGRID"> T  </i>
  </separator>
  <separator name="ionic" >
   <i type="int" name="NSW">   100</i>
   <i type="int" name="IBRION">     2</i>
   <i type="int" name="MDALGO">     0</i>
   <i type="int" name="ISIF">     3</i>
   <i name="PSTRESS">      0.00000000</i>
   <i name="EDIFFG">     -0.00100000</i>
   <i type="int" name="NFREE">     1</i>
   <i name="POTIM">      0.50000000</i>
   <i name="SMASS">     -3.00000000</i>
   <i name="SCALEE">      1.00000000</i>
  </separator>
  <separator name="ionic md" >
   <i name="TEBEG">      0.00010000</i>
   <i name="TEEND">      0.00010000</i>
   <i type="int" name="NBLOCK">     1</i>
   <i type="int" name="KBLOCK">   100</i>
   <i type="int" name="NPACO">   256</i>
   <i name="APACO">     16.00000000</i>
  </separator>
  <separator name="symmetry" >
   <i type="int" name="ISYM">     2</i>
   <i name="SYMPREC">      0.00001000</i>
  </separator>
  <separator name="dos" >
   <i type="int" name="LORBIT">    10</i>
   <v name="RWIGS">     -1.00000000     -1.00000000</v>
   <i type="int" name="NEDOS">    11</i>
   <i name="EMIN">     10.00000000</i>
   <i name="EMAX">    -10.00000000</i>
   <i name="EFERMI">      0.00000000</i>
  </separator>
  <separator name="writing" >
   <i type="int" name="NWRITE">     1</i>
   <i type="logical" name="LWAVE"> F  </i>
   <i type="logical" name="LDOWNSAMPLE"> F  </i>
   <i type="logical" name="LCHARG"> F  </i>
   <i type="logical" name="LPARD"> F  </i>
   <i type="logical" name="LVTOT"> F  </i>
   <i type="logical" name="LVHAR"> F  </i>
   <i type="logical" name="LELF"> F  </i>
   <i type="logical" name="LOPTICS"> F  </i>
   <v name="STM">      0.00000000      0.00000000      0.00000000      0.00000000      0.00000000      0.00000000      0.00000000</v>
  </separator>
  <separator name="performance" >
   <i type="int" name="NPAR">     2</i>
   <i type="int" name="NSIM">     4</i>
   <i type="int" name="NBLK">    -1</i>
   <i type="logical" name="LPLANE"> T  </i>
   <i type="logical" name="LSCALAPACK"> T  </i>
   <i type="logical" name="LSCAAWARE"> F  </i>
   <i type="logical" name="LSCALU"> F  </i>
   <i type="logical" name="LASYNC"> F  </i>
   <i type="logical" name="LORBITALREAL"> F  </i>
  </separator>
  <separator name="miscellaneous" >
   <i type="int" name="IDIOT">     3</i>
   <i type="int" name="ISPECIAL">     0</i>
   <i type="logical" name="LMUSIC"> F  </i>
   <v name="POMASS">    114.82000000     30.97400000</v>
   <v name="DARWINR">      0.00000000      0.00000000</v>
   <v name="DARWINV">      1.00000000      1.00000000</v>
   <i type="logical" name="LCORR"> T  </i>
  </separator>
  <i type="logical" name="GGA_COMPAT"> T  </i>
  <i type="logical" name="LBERRY"> F  </i>
  <i type="int" name="ICORELEVEL">     0</i>
  <i type="logical" name="LDAU"> F  </i>
  <i type="int" name="I_CONSTRAINED_M">     0</i>
  <separator name="electronic exchange-correlation" >
   <i type="string" name="GGA">--</i>
   <i type="int" name="VOSKOWN">     0</i>
   <i type="logical" name="LHFCALC"> F  </i>
   <i type="string" name="PRECFOCK"></i>
   <i type="logical" name="LSYMGRAD"> F  </i>
   <i type="logical" name="LHFONE"> F  </i>
   <i type="logical" name="LRHFCALC"> F  </i>
   <i type="logical" name="LTHOMAS"> F  </i>
   <i type="logical" name="LMODELHF"> F  </i>
   <i name="ENCUT4O">     -1.00000000</i>
   <i type="int" name="EXXOEP">     0</i>
   <i type="int" name="FOURORBIT">     0</i>
   <i name="AEXX">      0.00000000</i>
   <i name="HFALPHA">      0.00000000</i>
   <i name="MCALPHA">      0.00000000</i>
   <i name="ALDAX">      1.00000000</i>
   <i name="AGGAX">      1.00000000</i>
   <i name="ALDAC">      1.00000000</i>
   <i name="AGGAC">      1.00000000</i>
   <i type="int" name="NKREDX">     1</i>
   <i type="int" name="NKREDY">     1</i>
   <i type="int" name="NKREDZ">     1</i>
   <i type="logical" name="SHIFTRED"> F  </i>
   <i type="logical" name="ODDONLY"> F  </i>
   <i type="logical" name="EVENONLY"> F  </i>
   <i type="int" name="LMAXFOCK">     0</i>
   <i type="int" name="NMAXFOCKAE">     0</i>
   <i type="logical" name="LFOCKAEDFT"> F  </i>
   <i name="HFSCREEN">      0.00000000</i>
   <i name="HFSCREENC">      0.00000000</i>
   <i type="int" name="NBANDSGWLOW">     0</i>
  </separator>
  <separator name="vdW DFT" >
   <i type="logical" name="LUSE_VDW"> F  </i>
   <i name="Zab_VDW">     -0.84910000</i>
   <i name="PARAM1">      0.12340000</i>
   <i name="PARAM2">      1.00000000</i>
   <i name="PARAM3">      0.00000000</i>
  </separator>
  <separator name="model GW" >
   <i type="int" name="MODEL_GW">     0</i>
   <i name="MODEL_EPS0">     16.20323923</i>
   <i name="MODEL_ALPHA">      1.00000000</i>
  </separator>
  <separator name="linear response parameters" >
   <i type="logical" name="LEPSILON"> F  </i>
   <i type="logical" name="LRPA"> F  </i>
   <i type="logical" name="LNABLA"> F  </i>
   <i type="logical" name="LVEL"> F  </i>
   <i type="int" name="KINTER">     0</i>
   <i name="CSHIFT">      0.10000000</i>
   <i name="OMEGAMAX">     -1.00000000</i>
   <i name="DEG_THRESHOLD">      0.00200000</i>
   <i name="RTIME">     -0.10000000</i>
   <i name="WPLASMAI">      0.00000000</i>
   <v name="DFIELD">      0.00000000      0.00000000      0.00000000</v>
   <v name="WPLASMA">      0.00000000      0.00000000      0.00000000      0.00000000      0.00000000      0.00000000      0.00000000      0.00000000      0.00000000</v>
  </separator>
  <separator name="orbital magnetization" >
   <i type="logical" name="NUCIND"> F  </i>
   <v name="MAGPOS">      0.00000000      0.00000000      0.00000000</v>
   <i type="logical" name="LNICSALL"> T  </i>
   <i type="logical" name="ORBITALMAG"> F  </i>
   <i type="logical" name="LMAGBLOCH"> F  </i>
   <i type="logical" name="LCHIMAG"> F  </i>
   <i type="logical" name="LGAUGE"> T  </i>
   <i type="int" name="MAGATOM">     0</i>
   <v name="MAGDIPOL">      0.00000000      0.00000000      0.00000000</v>
   <v name="AVECCONST">      0.00000000      0.00000000      0.00000000</v>
  </separator>
  <separator name="response functions" >
   <i type="logical" name="LADDER"> F  </i>
   <i type="logical" name="LRPAFORCE"> F  </i>
   <i type="logical" name="LFXC"> F  </i>
   <i type="logical" name="LHARTREE"> T  </i>
   <i type="int" name="IBSE">     0</i>
   <v type="int" name="KPOINT">    -1     0     0     0</v>
   <i type="logical" name="LTCTE"> F  </i>
   <i type="logical" name="LTETE"> F  </i>
   <i type="logical" name="LTRIPLET"> F  </i>
   <i type="logical" name="LFXCEPS"> F  </i>
   <i type="logical" name="LFXHEG"> F  </i>
   <i type="int" name="NATURALO">     2</i>
   <i type="logical" name="L2ORDER"> F  </i>
   <i type="logical" name="LMP2LT"> F  </i>
   <i type="logical" name="LUSEW"> F  </i>
   <i name="ENCUTGW">     -2.00000000</i>
   <i name="ENCUTGWSOFT">     -2.00000000</i>
   <i name="ENCUTLF">     -1.00000000</i>
   <i type="int" name="LMAXMP2">    -1</i>
   <i name="SCISSOR">      0.00000000</i>
   <i type="int" name="NOMEGA">     0</i>
   <i type="int" name="NOMEGAR">     0</i>
   <i type="int" name="NBANDSGW">    -1</i>
   <i type="int" name="NBANDSO">    -1</i>
   <i type="int" name="NBANDSV">    -1</i>
   <i type="int" name="NELM">   100</i>
   <i type="int" name="NELMHF">     1</i>
   <i type="int" name="DIM">     3</i>
   <i type="int" name="ANTIRES">     0</i>
   <i name="OMEGAMAX">    -30.00000000</i>
   <i name="OMEGAMIN">    -30.00000000</i>
   <i name="OMEGATL">   -200.00000000</i>
   <i type="int" name="OMEGAGRID">   140</i>
   <i name="CSHIFT">     -0.10000000</i>
   <i type="logical" name="SELFENERGY"> F  </i>
   <i type="logical" name="LSPECTRAL"> F  </i>
   <i type="logical" name="LSPECTRALGW"> F  </i>
   <i type="logical" name="LSINGLES"> F  </i>
   <i type="logical" name="LFERMIGW"> F  </i>
   <i type="logical" name="ODDONLYGW"> F  </i>
   <i type="logical" name="EVENONLYGW"> F  </i>
   <i type="int" name="NKREDLFX">     1</i>
   <i type="int" name="NKREDLFY">     1</i>
   <i type="int" name="NKREDLFZ">     1</i>
   <i type="int" name="MAXMEM">  2800</i>
   <i type="int" name="TELESCOPE">     0</i>
   <i type="int" name="TAUPAR">     1</i>
   <i type="int" name="OMEGAPAR">    -1</i>
   <i name="LAMBDA">      1.00000000</i>
  </separator>
  <separator name="External order field" >
   <i name="OFIELD_KAPPA">      0.00000000</i>
   <v name="OFIELD_K">      0.00000000      0.00000000      0.00000000</v>
   <i name="OFIELD_Q6_NEAR">      0.00000000</i>
   <i name="OFIELD_Q6_FAR">      0.00000000</i>
   <i name="OFIELD_A">      0.00000000</i>
  </separator>
 </parameters>
 <atominfo>
  <atoms>       2 </atoms>
  <types>       2 </types>
  <array name="atoms" >
   <dimension dim="1">ion</dimension>
   <field type="string">element</field>
   <field type="int">atomtype</field>
   <set>
    <rc><c>In</c><c>   1</c></rc>
    <rc><c>P </c><c>   2</c></rc>
   </set>
  </array>
  <array name="atomtypes" >
   <dimension dim="1">type</dimension>
   <field type="int">atomspertype</field>
   <field type="string">element</field>
   <field>mass</field>
   <field>valence</field>
   <field type="string">pseudopotential</field>
   <set>
    <rc><c>   1</c><c>In</c><c>    114.82000000</c><c>      3.00000000</c><c>  PAW_PBE In 08Apr2002                  </c></rc>
    <rc><c>   1</c><c>P </c><c>     30.97400000</c><c>      5.00000000</c><c>  PAW_PBE P 06Sep2000                   </c></rc>
   </set>
  </array>
 </atominfo>
 <structure name="initialpos" >
  <crystal>
   <varray name="basis" >
    <v>       0.00000000       3.00019994       3.00019994 </v>
    <v>       3.00019994       0.00000000       3.00019994 </v>
    <v>       3.00019994       3.00019994       0.00000000 </v>
   </varray>
   <i name="volume">     54.01079745 </i>
   <varray name="rec_basis" >
    <v>      -0.16665556       0.16665556       0.16665556 </v>
    <v>       0.16665556      -0.16665556       0.16665556 </v>
    <v>       0.16665556       0.16665556      -0.16665556 </v>
   </varray>
  </crystal>
  <varray name="positions" >
   <v>       0.00000000       0.00000000       0.00000000 </v>
   <v>       0.25000000       0.25000000       0.25000000 </v>
  </varray>
 </structure>
 <calculation>
  <scstep>
   <time name="dav">    0.05    0.05</time>
   <time name="total">    0.17    0.17</time>
   <energy>
    <i name="alphaZ">      2.81432727 </i>
    <i name="ewald">   -215.91448843 </i>
    <i name="hartreedc">    -25.44751028 </i>
    <i name="XCdc">    -52.89414415 </i>
    <i name="pawpsdc">    233.98277405 </i>
    <i name="pawaedc">   -166.44191234 </i>
    <i name="eentropy">     -0.00008383 </i>
    <i name="bandstr">     13.18574572 </i>
    <i name="atom">    229.83262962 </i>
    <i name="e_fr_energy">     19.11733764 </i>
    <i name="e_wo_entrp">     19.11742147 </i>
    <i name="e_0_energy">     19.11737956 </i>
   </energy>
  </scstep>
  <scstep>
   <time name="dav">    0.07    0.07</time>
   <time name="total">    0.07    0.07</time>
   <energy>
    <i name="e_fr_energy">     -7.90127253 </i>
    <i name="e_wo_entrp">     -7.90127253 </i>
    <i name="e_0_energy">     -7.90127253 </i>
   </energy>
  </scstep>
  <scstep>
   <time name="dav">    0.06    0.06</time>
   <time name="total">    0.06    0.06</time>
   <energy>
    <i name="e_fr_energy">     -8.74827602 </i>
    <i name="e_wo_entrp">     -8.74827602 </i>
    <i name="e_0_energy">     -8.74827602 </i>
   </energy>
  </scstep>
  <scstep>
   <time name="dav">    0.07    0.07</time>
   <time name="total">    0.07    0.07</time>
   <energy>
    <i name="e_fr_energy">     -8.75336228 </i>
    <i name="e_wo_entrp">     -8.75336228 </i>
    <i name="e_0_energy">     -8.75336228 </i>
   </energy>
  </scstep>
  <scstep>
   <time name="dav">    0.06    0.06</time>
   <time name="total">    0.06    0.06</time>
   <energy>
    <i name="e_fr_energy">     -8.75336949 </i>
    <i name="e_wo_entrp">     -8.75336949 </i>
    <i name="e_0_energy">     -8.75336949 </i>
   </energy>
  </scstep>
  <scstep>
   <time name="dav">    0.07    0.07</time>
   <time name="total">    0.08    0.08</time>
   <energy>
    <i name="e_fr_energy">     -8.75336955 </i>
    <i name="e_wo_entrp">     -8.75336955 </i>
    <i name="e_0_energy">     -8.75336955 </i>
   </energy>
  </scstep>
  <scstep>
   <time name="dav">    0.06    0.06</time>
   <time name="total">    0.06    0.06</time>
   <energy>
    <i name="e_fr_energy">     -8.75336955 </i>
    <i name="e_wo_entrp">     -8.75336955 </i>
    <i name="e_0_energy">     -8.75336955 </i>
   </energy>
  </scstep>
  <scstep>
   <time name="dav">    0.07    0.07</time>
   <time name="total">    0.11    0.11</time>
   <energy>
    <i name="e_fr_energy">     -8.75336955 </i>
    <i name="e_wo_entrp">     -8.75336955 </i>
    <i name="e_0_energy">     -8.75336955 </i>
   </energy>
  </scstep>
  <scstep>
   <time name="dav">    0.05    0.05</time>
   <time name="total">    0.21    0.21</time>
   <energy>
    <i name="e_fr_energy">     -8.48113329 </i>
    <i name="e_wo_entrp">     -8.48113329 </i>
    <i name="e_0_energy">     -8.48113329 </i>
   </energy>
  </scstep>
  <scstep>
   <time name="dav">    0.06    0.06</time>
   <time name="total">    0.23    0.23</time>
   <energy>
    <i name="e_fr_energy">     -8.35538757 </i>
    <i name="e_wo_entrp">     -8.35538757 </i>
    <i name="e_0_energy">     -8.35538757 </i>
   </energy>
  </scstep>
  <scstep>
   <time name="dav">    0.06    0.06</time>
   <time name="total">    0.22    0.22</time>
   <energy>
    <i name="e_fr_energy">     -8.34420692 </i>
    <i name="e_wo_entrp">     -8.34420692 </i>
    <i name="e_0_energy">     -8.34420692 </i>
   </energy>
  </scstep>
  <scstep>
   <time name="dav">    0.06    0.06</time>
   <time name="total">    0.23    0.23</time>
   <energy>
    <i name="e_fr_energy">     -8.34391212 </i>
    <i name="e_wo_entrp">     -8.34391212 </i>
    <i name="e_0_energy">     -8.34391212 </i>
   </energy>
  </scstep>
  <scstep>
   <time name="dav">    0.06    0.06</time>
   <time name="total">    0.23    0.23</time>
   <energy>
    <i name="e_fr_energy">     -8.34397614 </i>
    <i name="e_wo_entrp">     -8.34397614 </i>
    <i name="e_0_energy">     -8.34397614 </i>
   </energy>
  </scstep>
  <scstep>
   <time name="dav">    0.06    0.06</time>
   <time name="total">    0.22    0.22</time>
   <energy>
    <i name="e_fr_energy">     -8.34398803 </i>
    <i name="e_wo_entrp">     -8.34398803 </i>
    <i name="e_0_energy">     -8.34398803 </i>
   </energy>
  </scstep>
  <scstep>
   <time name="dav">    0.05    0.05</time>
   <time name="total">    0.22    0.22</time>
   <energy>
    <i name="e_fr_energy">     -8.34398610 </i>
    <i name="e_wo_entrp">     -8.34398610 </i>
    <i name="e_0_energy">     -8.34398610 </i>
   </energy>
  </scstep>
  <scstep>
   <time name="dav">    0.07    0.07</time>
   <time name="total">    0.23    0.23</time>
   <energy>
    <i name="e_fr_energy">     -8.34398582 </i>
    <i name="e_wo_entrp">     -8.34398582 </i>
    <i name="e_0_energy">     -8.34398582 </i>
   </energy>
  </scstep>
  <scstep>
   <time name="dav">    0.06    0.06</time>
   <time name="total">    0.18    0.18</time>
   <energy>
    <i name="alphaZ">      2.81432727 </i>
    <i name="ewald">   -215.91448843 </i>
    <i name="hartreedc">    -30.64203944 </i>
    <i name="XCdc">    -52.02427495 </i>
    <i name="pawpsdc">    705.59337021 </i>
    <i name="pawaedc">   -638.53959972 </i>
    <i name="eentropy">     -0.00000000 </i>
    <i name="bandstr">     -9.46391030 </i>
    <i name="atom">    229.83262962 </i>
    <i name="e_fr_energy">     -8.34398573 </i>
    <i name="e_wo_entrp">     -8.34398573 </i>
    <i name="e_0_energy">     -8.34398573 </i>
   </energy>
  </scstep>
  <structure>
   <crystal>
    <varray name="basis" >
     <v>       0.00000000       3.00019994       3.00019994 </v>
     <v>       3.00019994       0.00000000       3.00019994 </v>
     <v>       3.00019994       3.00019994       0.00000000 </v>
    </varray>
    <i name="volume">     54.01079745 </i>
    <varray name="rec_basis" >
     <v>      -0.16665556       0.16665556       0.16665556 </v>
     <v>       0.16665556      -0.16665556       0.16665556 </v>
     <v>       0.16665556       0.16665556      -0.16665556 </v>
    </varray>
   </crystal>
   <varray name="positions" >
    <v>       0.00000000       0.00000000       0.00000000 </v>
    <v>       0.25000000       0.25000000       0.25000000 </v>
   </varray>
  </structure>
  <varray name="forces" >
   <v>       0.00000000       0.00000000       0.00000000 </v>
   <v>      -0.00000000      -0.00000000      -0.00000000 </v>
  </varray>
  <varray name="stress" >
   <v>      -0.03070192       0.00000000       0.00000000 </v>
   <v>       0.00000000      -0.03070192       0.00000000 </v>
   <v>      -0.00000000      -0.00000000      -0.03070192 </v>
  </varray>
  <energy>
   <i name="e_fr_energy">     -8.34398573 </i>
   <i name="e_wo_entrp">     -8.34398573 </i>
   <i name="e_0_energy">     -0.00000000 </i>
  </energy>
  <time name="totalsc">    3.86    3.86</time>
  <eigenvalues>
   <array>
    <dimension dim="1">band</dimension>
    <dimension dim="2">kpoint</dimension>
    <dimension dim="3">spin</dimension>
    <field>eigene</field>
    <field>occ</field>
    <set>
     <set comment="spin 1">
      <set comment="kpoint 1">
       <r>   -7.8127    1.0000 </r>
       <r>    3.2241    1.0000 </r>
       <r>    3.2241    1.0000 </r>
       <r>    3.2241    1.0000 </r>
       <r>    3.6009    0.0000 </r>
       <r>    7.3481    0.0000 </r>
       <r>    7.3481    0.0000 </r>
       <r>    7.3481    0.0000 </r>
      </set>
      <set comment="kpoint 2">
       <r>   -7.6997    1.0000 </r>
       <r>    1.8701    1.0000 </r>
       <r>    3.0914    1.0000 </r>
       <r>    3.0914    1.0000 </r>
       <r>    4.5536    0.0000 </r>
       <r>    7.4016    0.0000 </r>
       <r>    7.5538    0.0000 </r>
       <r>    7.5538    0.0000 </r>
      </set>
      <set comment="kpoint 3">
       <r>   -7.3784    1.0000 </r>
       <r>    0.2859    1.0000 </r>
       <r>    2.8033    1.0000 </r>
       <r>    2.8033    1.0000 </r>
       <r>    4.8727    0.0000 </r>
       <r>    7.9323    0.0000 </r>
       <r>    7.9323    0.0000 </r>
       <r>    8.0904    0.0000 </r>
      </set>
      <set comment="kpoint 4">
       <r>   -6.9212    1.0000 </r>
       <r>   -1.1052    1.0000 </r>
       <r>    2.5316    1.0000 </r>
       <r>    2.5316    1.0000 </r>
       <r>    4.7403    0.0000 </r>
       <r>    8.0888    0.0000 </r>
       <r>    8.0888    0.0000 </r>
       <r>    9.2744    0.0000 </r>
      </set>
      <set comment="kpoint 5">
       <r>   -6.5285    1.0000 </r>
       <r>   -1.9900    1.0000 </r>
       <r>    2.3761    1.0000 </r>
       <r>    2.3761    1.0000 </r>
       <r>    4.6131    0.0000 </r>
       <r>    8.0598    0.0000 </r>
       <r>    8.0598    0.0000 </r>
       <r>   10.0787    0.0000 </r>
      </set>
      <set comment="kpoint 6">
       <r>   -7.6618    1.0000 </r>
       <r>    1.8169    1.0000 </r>
       <r>    2.8516    1.0000 </r>
       <r>    2.8516    1.0000 </r>
       <r>    4.9650    0.0000 </r>
       <r>    6.8400    0.0000 </r>
       <r>    7.8852    0.0000 </r>
       <r>    7.8852    0.0000 </r>
      </set>
      <set comment="kpoint 7">
       <r>   -7.4086    1.0000 </r>
       <r>    0.6368    1.0000 </r>
       <r>    2.5163    1.0000 </r>
       <r>    2.5539    1.0000 </r>
       <r>    5.4831    0.0000 </r>
       <r>    6.8185    0.0000 </r>
       <r>    8.3776    0.0000 </r>
       <r>    8.3876    0.0000 </r>
      </set>
      <set comment="kpoint 8">
       <r>   -6.9896    1.0000 </r>
       <r>   -0.7108    1.0000 </r>
       <r>    2.1671    1.0000 </r>
       <r>    2.2559    1.0000 </r>
       <r>    5.4617    0.0000 </r>
       <r>    7.4276    0.0000 </r>
       <r>    8.6249    0.0000 </r>
       <r>    8.7663    0.0000 </r>
      </set>
      <set comment="kpoint 9">
       <r>   -6.5510    1.0000 </r>
       <r>   -1.7438    1.0000 </r>
       <r>    1.8258    1.0000 </r>
       <r>    2.1544    1.0000 </r>
       <r>    5.3272    0.0000 </r>
       <r>    7.6812    0.0000 </r>
       <r>    8.5276    0.0000 </r>
       <r>    9.6565    0.0000 </r>
      </set>
      <set comment="kpoint 10">
       <r>   -6.3970    1.0000 </r>
       <r>   -2.0509    1.0000 </r>
       <r>    1.6382    1.0000 </r>
       <r>    2.2338    1.0000 </r>
       <r>    5.2840    0.0000 </r>
       <r>    7.7765    0.0000 </r>
       <r>    8.3655    0.0000 </r>
       <r>   10.2045    0.0000 </r>
      </set>
      <set comment="kpoint 11">
       <r>   -6.6859    1.0000 </r>
       <r>   -1.4534    1.0000 </r>
       <r>    1.6552    1.0000 </r>
       <r>    2.4706    1.0000 </r>
       <r>    5.3557    0.0000 </r>
       <r>    7.9608    0.0000 </r>
       <r>    8.2395    0.0000 </r>
       <r>    9.4102    0.0000 </r>
      </set>
      <set comment="kpoint 12">
       <r>   -7.1440    1.0000 </r>
       <r>   -0.2849    1.0000 </r>
       <r>    1.9095    1.0000 </r>
       <r>    2.7928    1.0000 </r>
       <r>    5.4453    0.0000 </r>
       <r>    7.8351    0.0000 </r>
       <r>    8.0144    0.0000 </r>
       <r>    8.5293    0.0000 </r>
      </set>
      <set comment="kpoint 13">
       <r>   -7.5166    1.0000 </r>
       <r>    0.9947    1.0000 </r>
       <r>    2.4455    1.0000 </r>
       <r>    3.0603    1.0000 </r>
       <r>    5.1670    0.0000 </r>
       <r>    7.3055    0.0000 </r>
       <r>    7.6585    0.0000 </r>
       <r>    8.2198    0.0000 </r>
      </set>
      <set comment="kpoint 14">
       <r>   -7.2288    1.0000 </r>
       <r>    0.2946    1.0000 </r>
       <r>    2.1380    1.0000 </r>
       <r>    2.1380    1.0000 </r>
       <r>    5.9061    0.0000 </r>
       <r>    6.1518    0.0000 </r>
       <r>    9.1020    0.0000 </r>
       <r>    9.1020    0.0000 </r>
      </set>
      <set comment="kpoint 15">
       <r>   -6.8731    1.0000 </r>
       <r>   -0.6164    1.0000 </r>
       <r>    1.6790    1.0000 </r>
       <r>    1.8515    1.0000 </r>
       <r>    5.8628    0.0000 </r>
       <r>    6.4387    0.0000 </r>
       <r>    9.0937    0.0000 </r>
       <r>    9.5983    0.0000 </r>
      </set>
      <set comment="kpoint 16">
       <r>   -6.4484    1.0000 </r>
       <r>   -1.5183    1.0000 </r>
       <r>    1.1162    1.0000 </r>
       <r>    1.7464    1.0000 </r>
       <r>    5.8172    0.0000 </r>
       <r>    7.2548    0.0000 </r>
       <r>    9.0158    0.0000 </r>
       <r>    9.5793    0.0000 </r>
      </set>
      <set comment="kpoint 17">
       <r>   -6.1967    1.0000 </r>
       <r>   -1.9713    1.0000 </r>
       <r>    0.7124    1.0000 </r>
       <r>    1.8468    1.0000 </r>
       <r>    5.8514    0.0000 </r>
       <r>    7.7664    0.0000 </r>
       <r>    9.3078    0.0000 </r>
       <r>    9.7157    0.0000 </r>
      </set>
      <set comment="kpoint 18">
       <r>   -6.3490    1.0000 </r>
       <r>   -1.7017    1.0000 </r>
       <r>    0.6167    1.0000 </r>
       <r>    2.1262    1.0000 </r>
       <r>    5.9949    0.0000 </r>
       <r>    7.9768    0.0000 </r>
       <r>    8.9765    0.0000 </r>
       <r>    9.4409    0.0000 </r>
      </set>
      <set comment="kpoint 19">
       <r>   -6.7549    1.0000 </r>
       <r>   -0.9807    1.0000 </r>
       <r>    0.9837    1.0000 </r>
       <r>    2.4983    1.0000 </r>
       <r>    6.0230    0.0000 </r>
       <r>    8.2393    0.0000 </r>
       <r>    8.2882    0.0000 </r>
       <r>    8.5081    0.0000 </r>
      </set>
      <set comment="kpoint 20">
       <r>   -6.5954    1.0000 </r>
       <r>   -1.0870    1.0000 </r>
       <r>    1.5246    1.0000 </r>
       <r>    1.5246    1.0000 </r>
       <r>    5.3854    0.0000 </r>
       <r>    6.0287    0.0000 </r>
       <r>   10.5804    0.0000 </r>
       <r>   10.5960    0.0000 </r>
      </set>
      <set comment="kpoint 21">
       <r>   -6.2421    1.0000 </r>
       <r>   -1.6872    1.0000 </r>
       <r>    1.0484    1.0000 </r>
       <r>    1.3812    1.0000 </r>
       <r>    5.4783    0.0000 </r>
       <r>    6.1596    0.0000 </r>
       <r>   10.2752    0.0000 </r>
       <r>   10.9176    0.0000 </r>
      </set>
      <set comment="kpoint 22">
       <r>   -5.9970    1.0000 </r>
       <r>   -2.0175    1.0000 </r>
       <r>    0.4283    1.0000 </r>
       <r>    1.4562    1.0000 </r>
       <r>    5.6080    0.0000 </r>
       <r>    7.2016    0.0000 </r>
       <r>   10.1681    0.0000 </r>
       <r>   10.5738    0.0000 </r>
      </set>
      <set comment="kpoint 23">
       <r>   -6.0513    1.0000 </r>
       <r>   -1.9394    1.0000 </r>
       <r>    0.1708    1.0000 </r>
       <r>    1.7311    1.0000 </r>
       <r>    5.8476    0.0000 </r>
       <r>    8.1310    0.0000 </r>
       <r>    9.8859    0.0000 </r>
       <r>   10.1200    0.0000 </r>
      </set>
      <set comment="kpoint 24">
       <r>   -6.0152    1.0000 </r>
       <r>   -2.0536    1.0000 </r>
       <r>    1.1878    1.0000 </r>
       <r>    1.1878    1.0000 </r>
       <r>    5.1418    0.0000 </r>
       <r>    5.5931    0.0000 </r>
       <r>   11.7785    0.0000 </r>
       <r>   12.0368    0.0000 </r>
      </set>
      <set comment="kpoint 25">
       <r>   -5.9091    1.0000 </r>
       <r>   -2.1716    1.0000 </r>
       <r>    0.8262    1.0000 </r>
       <r>    1.2149    1.0000 </r>
       <r>    5.3315    0.0000 </r>
       <r>    5.9659    0.0000 </r>
       <r>   11.4099    0.0000 </r>
       <r>   11.7657    0.0000 </r>
      </set>
      <set comment="kpoint 26">
       <r>   -7.1029    1.0000 </r>
       <r>   -0.1831    1.0000 </r>
       <r>    1.7092    1.0000 </r>
       <r>    2.4414    1.0000 </r>
       <r>    6.0097    0.0000 </r>
       <r>    6.7545    0.0000 </r>
       <r>    8.5345    0.0000 </r>
       <r>    8.9130    0.0000 </r>
      </set>
      <set comment="kpoint 27">
       <r>   -6.6729    1.0000 </r>
       <r>   -1.1719    1.0000 </r>
       <r>    1.1857    1.0000 </r>
       <r>    2.1447    1.0000 </r>
       <r>    6.1006    0.0000 </r>
       <r>    7.3563    0.0000 </r>
       <r>    8.4227    0.0000 </r>
       <r>    9.3790    0.0000 </r>
      </set>
      <set comment="kpoint 28">
       <r>   -6.3105    1.0000 </r>
       <r>   -1.8884    1.0000 </r>
       <r>    0.9710    1.0000 </r>
       <r>    1.9168    1.0000 </r>
       <r>    6.0391    0.0000 </r>
       <r>    7.5002    0.0000 </r>
       <r>    8.8493    0.0000 </r>
       <r>    9.9088    0.0000 </r>
      </set>
      <set comment="kpoint 29">
       <r>   -6.5096    1.0000 </r>
       <r>   -1.2667    1.0000 </r>
       <r>    1.1241    1.0000 </r>
       <r>    1.6004    1.0000 </r>
       <r>    6.1141    0.0000 </r>
       <r>    6.4352    0.0000 </r>
       <r>    8.9735    0.0000 </r>
       <r>   10.5504    0.0000 </r>
      </set>
      <set comment="kpoint 30">
       <r>   -6.1548    1.0000 </r>
       <r>   -1.8195    1.0000 </r>
       <r>    0.6310    1.0000 </r>
       <r>    1.3898    1.0000 </r>
       <r>    6.2613    0.0000 </r>
       <r>    7.2518    0.0000 </r>
       <r>    8.7774    0.0000 </r>
       <r>   10.7377    0.0000 </r>
      </set>
      <set comment="kpoint 31">
       <r>   -6.0510    1.0000 </r>
       <r>   -1.9617    1.0000 </r>
       <r>    0.3472    1.0000 </r>
       <r>    1.4690    1.0000 </r>
       <r>    6.3979    0.0000 </r>
       <r>    7.8029    0.0000 </r>
       <r>    8.9190    0.0000 </r>
       <r>   10.5594    0.0000 </r>
      </set>
      <set comment="kpoint 32">
       <r>   -6.2919    1.0000 </r>
       <r>   -1.6388    1.0000 </r>
       <r>    0.4865    1.0000 </r>
       <r>    1.7837    1.0000 </r>
       <r>    6.5333    0.0000 </r>
       <r>    7.7959    0.0000 </r>
       <r>    8.1831    0.0000 </r>
       <r>   10.3435    0.0000 </r>
      </set>
      <set comment="kpoint 33">
       <r>   -5.9866    1.0000 </r>
       <r>   -2.0284    1.0000 </r>
       <r>    0.8709    1.0000 </r>
       <r>    1.0299    1.0000 </r>
       <r>    5.8516    0.0000 </r>
       <r>    6.1805    0.0000 </r>
       <r>   10.2289    0.0000 </r>
       <r>   11.4539    0.0000 </r>
      </set>
      <set comment="kpoint 34">
       <r>   -5.9055    1.0000 </r>
       <r>   -2.0784    1.0000 </r>
       <r>    0.4034    1.0000 </r>
       <r>    1.1013    1.0000 </r>
       <r>    6.1502    0.0000 </r>
       <r>    7.2219    0.0000 </r>
       <r>    9.8411    0.0000 </r>
       <r>   10.2329    0.0000 </r>
      </set>
      <set comment="kpoint 35">
       <r>   -5.9323    1.0000 </r>
       <r>   -2.0100    1.0000 </r>
       <r>    0.4298    1.0000 </r>
       <r>    0.9155    1.0000 </r>
       <r>    7.1495    0.0000 </r>
       <r>    7.4167    0.0000 </r>
       <r>    8.5408    0.0000 </r>
       <r>   10.0278    0.0000 </r>
      </set>
     </set>
    </set>
   </array>
  </eigenvalues>
  <separator name="orbital magnetization" >
   <v name="MAGDIPOLOUT">      0.00000000      0.00000000      0.00000000</v>
  </separator>
  <dos>
   <i name="efermi">      3.40851300 </i>
   <total>
    <array>
     <dimension dim="1">gridpoints</dimension>
     <dimension dim="2">spin</dimension>
     <field>energy</field>
     <field>total</field>
     <field>integrated</field>
     <set>
      <set comment="spin 1">
       <r>    -8.8051     0.0000     0.0000 </r>
       <r>    -6.6217     0.0905     0.6941 </r>
       <r>    -4.4382     0.0000     2.0000 </r>
       <r>    -2.2548     0.0000     2.0000 </r>
       <r>    -0.0714     0.0000     3.8217 </r>
       <r>     2.1121     0.0007     6.8630 </r>
       <r>     4.2955     0.0000     8.0027 </r>
       <r>     6.4790     0.0603    10.2140 </r>
       <r>     8.6624     0.0302    13.1578 </r>
       <r>    10.8459     0.0000    15.7695 </r>
       <r>    13.0293     0.0000    16.0000 </r>
      </set>
     </set>
    </array>
   </total>
   <partial>
    <array>
     <dimension dim="1">gridpoints</dimension>
     <dimension dim="2">spin</dimension>
     <dimension dim="3">ion</dimension>
     <field>energy</field>
     <field>  s  </field>
     <field>  p  </field>
     <field>  d  </field>
     <set>
      <set comment="ion 1">
       <set comment="spin 1">
        <r>    -8.8051     0.0000     0.0000     0.0000 </r>
        <r>    -6.6217     0.0146     0.0058     0.0011 </r>
        <r>    -4.4382     0.0000     0.0000     0.0000 </r>
        <r>    -2.2548     0.0000     0.0000     0.0000 </r>
        <r>    -0.0714     0.0000     0.0000     0.0000 </r>
        <r>     2.1121     0.0000     0.0002     0.0000 </r>
        <r>     4.2955     0.0000     0.0000     0.0000 </r>
        <r>     6.4790     0.0073     0.0090     0.0033 </r>
        <r>     8.6624     0.0000     0.0117     0.0026 </r>
        <r>    10.8459     0.0000     0.0000     0.0000 </r>
        <r>    13.0293     0.0000     0.0000     0.0000 </r>
       </set>
      </set>
      <set comment="ion 2">
       <set comment="spin 1">
        <r>    -8.8051     0.0000     0.0000     0.0000 </r>
        <r>    -6.6217     0.0395     0.0003     0.0000 </r>
        <r>    -4.4382     0.0000     0.0000     0.0000 </r>
        <r>    -2.2548     0.0000     0.0000     0.0000 </r>
        <r>    -0.0714     0.0000     0.0000     0.0000 </r>
        <r>     2.1121     0.0000     0.0002     0.0000 </r>
        <r>     4.2955     0.0000     0.0000     0.0000 </r>
        <r>     6.4790     0.0040     0.0087     0.0000 </r>
        <r>     8.6624     0.0000     0.0025     0.0000 </r>
        <r>    10.8459     0.0000     0.0000     0.0000 </r>
        <r>    13.0293     0.0000     0.0000     0.0000 </r>
       </set>
      </set>
     </set>
    </array>
   </partial>
  </dos>
  <projected>
   <eigenvalues>
    <array>
     <dimension dim="1">band</dimension>
     <dimension dim="2">kpoint</dimension>
     <dimension dim="3">spin</dimension>
     <field>eigene</field>
     <field>occ</field>
     <set>
      <set comment="spin 1">
       <set comment="kpoint 1">
        <r>   -7.8127    1.0000 </r>
        <r>    3.2241    1.0000 </r>
        <r>    3.2241    1.0000 </r>
        <r>    3.2241    1.0000 </r>
        <r>    3.6009    0.0000 </r>
        <r>    7.3481    0.0000 </r>
        <r>    7.3481    0.0000 </r>
        <r>    7.3481    0.0000 </r>
       </set>
       <set comment="kpoint 2">
        <r>   -7.6997    1.0000 </r>
        <r>    1.8701    1.0000 </r>
        <r>    3.0914    1.0000 </r>
        <r>    3.0914    1.0000 </r>
        <r>    4.5536    0.0000 </r>
        <r>    7.4016    0.0000 </r>
        <r>    7.5538    0.0000 </r>
        <r>    7.5538    0.0000 </r>
       </set>
       <set comment="kpoint 3">
        <r>   -7.3784    1.0000 </r>
        <r>    0.2859    1.0000 </r>
        <r>    2.8033    1.0000 </r>
        <r>    2.8033    1.0000 </r>
        <r>    4.8727    0.0000 </r>
        <r>    7.9323    0.0000 </r>
        <r>    7.9323    0.0000 </r>
        <r>    8.0904    0.0000 </r>
       </set>
       <set comment="kpoint 4">
        <r>   -6.9212    1.0000 </r>
        <r>   -1.1052    1.0000 </r>
        <r>    2.5316    1.0000 </r>
        <r>    2.5316    1.0000 </r>
        <r>    4.7403    0.0000 </r>
        <r>    8.0888    0.0000 </r>
        <r>    8.0888    0.0000 </r>
        <r>    9.2744    0.0000 </r>
       </set>
       <set comment="kpoint 5">
        <r>   -6.5285    1.0000 </r>
        <r>   -1.9900    1.0000 </r>
        <r>    2.3761    1.0000 </r>
        <r>    2.3761    1.0000 </r>
        <r>    4.6131    0.0000 </r>
        <r>    8.0598    0.0000 </r>
        <r>    8.0598    0.0000 </r>
        <r>   10.0787    0.0000 </r>
       </set>
       <set comment="kpoint 6">
        <r>   -7.6618    1.0000 </r>
        <r>    1.8169    1.0000 </r>
        <r>    2.8516    1.0000 </r>
        <r>    2.8516    1.0000 </r>
        <r>    4.9650    0.0000 </r>
        <r>    6.8400    0.0000 </r>
        <r>    7.8852    0.0000 </r>
        <r>    7.8852    0.0000 </r>
       </set>
       <set comment="kpoint 7">
        <r>   -7.4086    1.0000 </r>
        <r>    0.6368    1.0000 </r>
        <r>    2.5163    1.0000 </r>
        <r>    2.5539    1.0000 </r>
        <r>    5.4831    0.0000 </r>
        <r>    6.8185    0.0000 </r>
        <r>    8.3776    0.0000 </r>
        <r>    8.3876    0.0000 </r>
       </set>
       <set comment="kpoint 8">
        <r>   -6.9896    1.0000 </r>
        <r>   -0.7108    1.0000 </r>
        <r>    2.1671    1.0000 </r>
        <r>    2.2559    1.0000 </r>
        <r>    5.4617    0.0000 </r>
        <r>    7.4276    0.0000 </r>
        <r>    8.6249    0.0000 </r>
        <r>    8.7663    0.0000 </r>
       </set>
       <set comment="kpoint 9">
        <r>   -6.5510    1.0000 </r>
        <r>   -1.7438    1.0000 </r>
        <r>    1.8258    1.0000 </r>
        <r>    2.1544    1.0000 </r>
        <r>    5.3272    0.0000 </r>
        <r>    7.6812    0.0000 </r>
        <r>    8.5276    0.0000 </r>
        <r>    9.6565    0.0000 </r>
       </set>
       <set comment="kpoint 10">
        <r>   -6.3970    1.0000 </r>
        <r>   -2.0509    1.0000 </r>
        <r>    1.6382    1.0000 </r>
        <r>    2.2338    1.0000 </r>
        <r>    5.2840    0.0000 </r>
        <r>    7.7765    0.0000 </r>
        <r>    8.3655    0.0000 </r>
        <r>   10.2045    0.0000 </r>
       </set>
       <set comment="kpoint 11">
        <r>   -6.6859    1.0000 </r>
        <r>   -1.4534    1.0000 </r>
        <r>    1.6552    1.0000 </r>
        <r>    2.4706    1.0000 </r>
        <r>    5.3557    0.0000 </r>
        <r>    7.9608    0.0000 </r>
        <r>    8.2395    0.0000 </r>
        <r>    9.4102    0.0000 </r>
       </set>
       <set comment="kpoint 12">
        <r>   -7.1440    1.0000 </r>
        <r>   -0.2849    1.0000 </r>
        <r>    1.9095    1.0000 </r>
        <r>    2.7928    1.0000 </r>
        <r>    5.4453    0.0000 </r>
        <r>    7.8351    0.0000 </r>
        <r>    8.0144    0.0000 </r>
        <r>    8.5293    0.0000 </r>
       </set>
       <set comment="kpoint 13">
        <r>   -7.5166    1.0000 </r>
        <r>    0.9947    1.0000 </r>
        <r>    2.4455    1.0000 </r>
        <r>    3.0603    1.0000 </r>
        <r>    5.1670    0.0000 </r>
        <r>    7.3055    0.0000 </r>
        <r>    7.6585    0.0000 </r>
        <r>    8.2198    0.0000 </r>
       </set>
       <set comment="kpoint 14">
        <r>   -7.2288    1.0000 </r>
        <r>    0.2946    1.0000 </r>
        <r>    2.1380    1.0000 </r>
        <r>    2.1380    1.0000 </r>
        <r>    5.9061    0.0000 </r>
        <r>    6.1518    0.0000 </r>
        <r>    9.1020    0.0000 </r>
        <r>    9.1020    0.0000 </r>
       </set>
       <set comment="kpoint 15">
        <r>   -6.8731    1.0000 </r>
        <r>   -0.6164    1.0000 </r>
        <r>    1.6790    1.0000 </r>
        <r>    1.8515    1.0000 </r>
        <r>    5.8628    0.0000 </r>
        <r>    6.4387    0.0000 </r>
        <r>    9.0937    0.0000 </r>
        <r>    9.5983    0.0000 </r>
       </set>
       <set comment="kpoint 16">
        <r>   -6.4484    1.0000 </r>
        <r>   -1.5183    1.0000 </r>
        <r>    1.1162    1.0000 </r>
        <r>    1.7464    1.0000 </r>
        <r>    5.8172    0.0000 </r>
        <r>    7.2548    0.0000 </r>
        <r>    9.0158    0.0000 </r>
        <r>    9.5793    0.0000 </r>
       </set>
       <set comment="kpoint 17">
        <r>   -6.1967    1.0000 </r>
        <r>   -1.9713    1.0000 </r>
        <r>    0.7124    1.0000 </r>
        <r>    1.8468    1.0000 </r>
        <r>    5.8514    0.0000 </r>
        <r>    7.7664    0.0000 </r>
        <r>    9.3078    0.0000 </r>
        <r>    9.7157    0.0000 </r>
       </set>
       <set comment="kpoint 18">
        <r>   -6.3490    1.0000 </r>
        <r>   -1.7017    1.0000 </r>
        <r>    0.6167    1.0000 </r>
        <r>    2.1262    1.0000 </r>
        <r>    5.9949    0.0000 </r>
        <r>    7.9768    0.0000 </r>
        <r>    8.9765    0.0000 </r>
        <r>    9.4409    0.0000 </r>
       </set>
       <set comment="kpoint 19">
        <r>   -6.7549    1.0000 </r>
        <r>   -0.9807    1.0000 </r>
        <r>    0.9837    1.0000 </r>
        <r>    2.4983    1.0000 </r>
        <r>    6.0230    0.0000 </r>
        <r>    8.2393    0.0000 </r>
        <r>    8.2882    0.0000 </r>
        <r>    8.5081    0.0000 </r>
       </set>
       <set comment="kpoint 20">
        <r>   -6.5954    1.0000 </r>
        <r>   -1.0870    1.0000 </r>
        <r>    1.5246    1.0000 </r>
        <r>    1.5246    1.0000 </r>
        <r>    5.3854    0.0000 </r>
        <r>    6.0287    0.0000 </r>
        <r>   10.5804    0.0000 </r>
        <r>   10.5960    0.0000 </r>
       </set>
       <set comment="kpoint 21">
        <r>   -6.2421    1.0000 </r>
        <r>   -1.6872    1.0000 </r>
        <r>    1.0484    1.0000 </r>
        <r>    1.3812    1.0000 </r>
        <r>    5.4783    0.0000 </r>
        <r>    6.1596    0.0000 </r>
        <r>   10.2752    0.0000 </r>
        <r>   10.9176    0.0000 </r>
       </set>
       <set comment="kpoint 22">
        <r>   -5.9970    1.0000 </r>
        <r>   -2.0175    1.0000 </r>
        <r>    0.4283    1.0000 </r>
        <r>    1.4562    1.0000 </r>
        <r>    5.6080    0.0000 </r>
        <r>    7.2016    0.0000 </r>
        <r>   10.1681    0.0000 </r>
        <r>   10.5738    0.0000 </r>
       </set>
       <set comment="kpoint 23">
        <r>   -6.0513    1.0000 </r>
        <r>   -1.9394    1.0000 </r>
        <r>    0.1708    1.0000 </r>
        <r>    1.7311    1.0000 </r>
        <r>    5.8476    0.0000 </r>
        <r>    8.1310    0.0000 </r>
        <r>    9.8859    0.0000 </r>
        <r>   10.1200    0.0000 </r>
       </set>
       <set comment="kpoint 24">
        <r>   -6.0152    1.0000 </r>
        <r>   -2.0536    1.0000 </r>
        <r>    1.1878    1.0000 </r>
        <r>    1.1878    1.0000 </r>
        <r>    5.1418    0.0000 </r>
        <r>    5.5931    0.0000 </r>
        <r>   11.7785    0.0000 </r>
        <r>   12.0368    0.0000 </r>
       </set>
       <set comment="kpoint 25">
        <r>   -5.9091    1.0000 </r>
        <r>   -2.1716    1.0000 </r>
        <r>    0.8262    1.0000 </r>
        <r>    1.2149    1.0000 </r>
        <r>    5.3315    0.0000 </r>
        <r>    5.9659    0.0000 </r>
        <r>   11.4099    0.0000 </r>
        <r>   11.7657    0.0000 </r>
       </set>
       <set comment="kpoint 26">
        <r>   -7.1029    1.0000 </r>
        <r>   -0.1831    1.0000 </r>
        <r>    1.7092    1.0000 </r>
        <r>    2.4414    1.0000 </r>
        <r>    6.0097    0.0000 </r>
        <r>    6.7545    0.0000 </r>
        <r>    8.5345    0.0000 </r>
        <r>    8.9130    0.0000 </r>
       </set>
       <set comment="kpoint 27">
        <r>   -6.6729    1.0000 </r>
        <r>   -1.1719    1.0000 </r>
        <r>    1.1857    1.0000 </r>
        <r>    2.1447    1.0000 </r>
        <r>    6.1006    0.0000 </r>
        <r>    7.3563    0.0000 </r>
        <r>    8.4227    0.0000 </r>
        <r>    9.3790    0.0000 </r>
       </set>
       <set comment="kpoint 28">
        <r>   -6.3105    1.0000 </r>
        <r>   -1.8884    1.0000 </r>
        <r>    0.9710    1.0000 </r>
        <r>    1.9168    1.0000 </r>
        <r>    6.0391    0.0000 </r>
        <r>    7.5002    0.0000 </r>
        <r>    8.8493    0.0000 </r>
        <r>    9.9088    0.0000 </r>
       </set>
       <set comment="kpoint 29">
        <r>   -6.5096    1.0000 </r>
        <r>   -1.2667    1.0000 </r>
        <r>    1.1241    1.0000 </r>
        <r>    1.6004    1.0000 </r>
        <r>    6.1141    0.0000 </r>
        <r>    6.4352    0.0000 </r>
        <r>    8.9735    0.0000 </r>
        <r>   10.5504    0.0000 </r>
       </set>
       <set comment="kpoint 30">
        <r>   -6.1548    1.0000 </r>
        <r>   -1.8195    1.0000 </r>
        <r>    0.6310    1.0000 </r>
        <r>    1.3898    1.0000 </r>
        <r>    6.2613    0.0000 </r>
        <r>    7.2518    0.0000 </r>
        <r>    8.7774    0.0000 </r>
        <r>   10.7377    0.0000 </r>
       </set>
       <set comment="kpoint 31">
        <r>   -6.0510    1.0000 </r>
        <r>   -1.9617    1.0000 </r>
        <r>    0.3472    1.0000 </r>
        <r>    1.4690    1.0000 </r>
        <r>    6.3979    0.0000 </r>
        <r>    7.8029    0.0000 </r>
        <r>    8.9190    0.0000 </r>
        <r>   10.5594    0.0000 </r>
       </set>
       <set comment="kpoint 32">
        <r>   -6.2919    1.0000 </r>
        <r>   -1.6388    1.0000 </r>
        <r>    0.4865    1.0000 </r>
        <r>    1.7837    1.0000 </r>
        <r>    6.5333    0.0000 </r>
        <r>    7.7959    0.0000 </r>
        <r>    8.1831    0.0000 </r>
        <r>   10.3435    0.0000 </r>
       </set>
       <set comment="kpoint 33">
        <r>   -5.9866    1.0000 </r>
        <r>   -2.0284    1.0000 </r>
        <r>    0.8709    1.0000 </r>
        <r>    1.0299    1.0000 </r>
        <r>    5.8516    0.0000 </r>
        <r>    6.1805    0.0000 </r>
        <r>   10.2289    0.0000 </r>
        <r>   11.4539    0.0000 </r>
       </set>
       <set comment="kpoint 34">
        <r>   -5.9055    1.0000 </r>
        <r>   -2.0784    1.0000 </r>
        <r>    0.4034    1.0000 </r>
        <r>    1.1013    1.0000 </r>
        <r>    6.1502    0.0000 </r>
        <r>    7.2219    0.0000 </r>
        <r>    9.8411    0.0000 </r>
        <r>   10.2329    0.0000 </r>
       </set>
       <set comment="kpoint 35">
        <r>   -5.9323    1.0000 </r>
        <r>   -2.0100    1.0000 </r>
        <r>    0.4298    1.0000 </r>
        <r>    0.9155    1.0000 </r>
        <r>    7.1495    0.0000 </r>
        <r>    7.4167    0.0000 </r>
        <r>    8.5408    0.0000 </r>
        <r>   10.0278    0.0000 </r>
       </set>
      </set>
     </set>
    </array>
   </eigenvalues>
   <array>
    <dimension dim="1">ion</dimension>
    <dimension dim="2">band</dimension>
    <dimension dim="3">kpoint</dimension>
    <dimension dim="4">spin</dimension>
    <field>  s  </field>
    <field>  p  </field>
    <field>  d  </field>
    <set>
     <set comment="spin1">
      <set comment="kpoint 1">
       <set comment="band 1">
        <r>  0.2966  0.0000  0.0000 </r>
        <r>  0.3692  0.0000  0.0000 </r>
       </set>
       <set comment="band 2">
        <r>  0.0000  0.1117  0.1145 </r>
        <r>  0.0000  0.4134  0.0000 </r>
       </set>
       <set comment="band 3">
        <r>  0.0000  0.1117  0.1145 </r>
        <r>  0.0000  0.4134  0.0000 </r>
       </set>
       <set comment="band 4">
        <r>  0.0000  0.1117  0.1145 </r>
        <r>  0.0000  0.4134  0.0000 </r>
       </set>
       <set comment="band 5">
        <r>  0.4131  0.0000  0.0000 </r>
        <r>  0.3098  0.0000  0.0000 </r>
       </set>
       <set comment="band 6">
        <r>  0.0000  0.5772  0.0073 </r>
        <r>  0.0000  0.0168  0.0000 </r>
       </set>
       <set comment="band 7">
        <r>  0.0000  0.5772  0.0073 </r>
        <r>  0.0000  0.0168  0.0000 </r>
       </set>
       <set comment="band 8">
        <r>  0.0000  0.5772  0.0073 </r>
        <r>  0.0000  0.0168  0.0000 </r>
       </set>
      </set>
      <set comment="kpoint 2">
       <set comment="band 1">
        <r>  0.2853  0.0065  0.0008 </r>
        <r>  0.3736  0.0007  0.0000 </r>
       </set>
       <set comment="band 2">
        <r>  0.1921  0.0963  0.0624 </r>
        <r>  0.1178  0.2147  0.0000 </r>
       </set>
       <set comment="band 3">
        <r>  0.0000  0.1367  0.1036 </r>
        <r>  0.0000  0.3994  0.0000 </r>
       </set>
       <set comment="band 4">
        <r>  0.0000  0.1367  0.1036 </r>
        <r>  0.0000  0.3994  0.0000 </r>
       </set>
       <set comment="band 5">
        <r>  0.2454  0.0751  0.0226 </r>
        <r>  0.1769  0.1520  0.0000 </r>
       </set>
       <set comment="band 6">
        <r>  0.0317  0.4213  0.0313 </r>
        <r>  0.0088  0.0666  0.0000 </r>
       </set>
       <set comment="band 7">
        <r>  0.0000  0.5538  0.0164 </r>
        <r>  0.0000  0.0304  0.0000 </r>
       </set>
       <set comment="band 8">
        <r>  0.0000  0.5538  0.0164 </r>
        <r>  0.0000  0.0304  0.0000 </r>
       </set>
      </set>
      <set comment="kpoint 3">
       <set comment="band 1">
        <r>  0.2515  0.0246  0.0036 </r>
        <r>  0.3885  0.0022  0.0000 </r>
       </set>
       <set comment="band 2">
        <r>  0.2429  0.1242  0.0400 </r>
        <r>  0.1027  0.1749  0.0000 </r>
       </set>
       <set comment="band 3">
        <r>  0.0000  0.1832  0.0824 </r>
        <r>  0.0000  0.3755  0.0000 </r>
       </set>
       <set comment="band 4">
        <r>  0.0000  0.1832  0.0824 </r>
        <r>  0.0000  0.3755  0.0000 </r>
       </set>
       <set comment="band 5">
        <r>  0.2615  0.1373  0.0078 </r>
        <r>  0.1451  0.0870  0.0000 </r>
       </set>
       <set comment="band 6">
        <r>  0.0000  0.4936  0.0431 </r>
        <r>  0.0000  0.0489  0.0000 </r>
       </set>
       <set comment="band 7">
        <r>  0.0000  0.4936  0.0431 </r>
        <r>  0.0000  0.0489  0.0000 </r>
       </set>
       <set comment="band 8">
        <r>  0.0522  0.2026  0.0539 </r>
        <r>  0.0311  0.1816  0.0000 </r>
       </set>
      </set>
      <set comment="kpoint 4">
       <set comment="band 1">
        <r>  0.1965  0.0492  0.0089 </r>
        <r>  0.4181  0.0029  0.0000 </r>
       </set>
       <set comment="band 2">
        <r>  0.3062  0.1332  0.0180 </r>
        <r>  0.0698  0.1516  0.0000 </r>
       </set>
       <set comment="band 3">
        <r>  0.0000  0.2201  0.0641 </r>
        <r>  0.0000  0.3586  0.0000 </r>
       </set>
       <set comment="band 4">
        <r>  0.0000  0.2201  0.0641 </r>
        <r>  0.0000  0.3586  0.0000 </r>
       </set>
       <set comment="band 5">
        <r>  0.2873  0.1218  0.0189 </r>
        <r>  0.1312  0.0542  0.0000 </r>
       </set>
       <set comment="band 6">
        <r>  0.0000  0.4064  0.0870 </r>
        <r>  0.0000  0.0500  0.0000 </r>
       </set>
       <set comment="band 7">
        <r>  0.0000  0.4064  0.0870 </r>
        <r>  0.0000  0.0500  0.0000 </r>
       </set>
       <set comment="band 8">
        <r>  0.0329  0.1180  0.0592 </r>
        <r>  0.0265  0.2568  0.0000 </r>
       </set>
      </set>
      <set comment="kpoint 5">
       <set comment="band 1">
        <r>  0.1380  0.0700  0.0153 </r>
        <r>  0.4563  0.0014  0.0000 </r>
       </set>
       <set comment="band 2">
        <r>  0.3688  0.1289  0.0026 </r>
        <r>  0.0298  0.1425  0.0000 </r>
       </set>
       <set comment="band 3">
        <r>  0.0000  0.2392  0.0541 </r>
        <r>  0.0000  0.3508  0.0000 </r>
       </set>
       <set comment="band 4">
        <r>  0.0000  0.2392  0.0541 </r>
        <r>  0.0000  0.3508  0.0000 </r>
       </set>
       <set comment="band 5">
        <r>  0.3027  0.0986  0.0283 </r>
        <r>  0.1286  0.0454  0.0000 </r>
       </set>
       <set comment="band 6">
        <r>  0.0000  0.3512  0.1156 </r>
        <r>  0.0000  0.0454  0.0000 </r>
       </set>
       <set comment="band 7">
        <r>  0.0000  0.3512  0.1156 </r>
        <r>  0.0000  0.0454  0.0000 </r>
       </set>
       <set comment="band 8">
        <r>  0.0037  0.0741  0.0937 </r>
        <r>  0.0044  0.2494  0.0000 </r>
       </set>
      </set>
      <set comment="kpoint 6">
       <set comment="band 1">
        <r>  0.2814  0.0088  0.0011 </r>
        <r>  0.3751  0.0009  0.0000 </r>
       </set>
       <set comment="band 2">
        <r>  0.2313  0.0664  0.0642 </r>
        <r>  0.1388  0.1992  0.0000 </r>
       </set>
       <set comment="band 3">
        <r>  0.0000  0.1708  0.0897 </r>
        <r>  0.0000  0.3740  0.0000 </r>
       </set>
       <set comment="band 4">
        <r>  0.0000  0.1708  0.0897 </r>
        <r>  0.0000  0.3740  0.0000 </r>
       </set>
       <set comment="band 5">
        <r>  0.2157  0.0403  0.0385 </r>
        <r>  0.1520  0.2201  0.0000 </r>
       </set>
       <set comment="band 6">
        <r>  0.0357  0.4827  0.0131 </r>
        <r>  0.0093  0.0109  0.0000 </r>
       </set>
       <set comment="band 7">
        <r>  0.0000  0.5119  0.0291 </r>
        <r>  0.0000  0.0585  0.0000 </r>
       </set>
       <set comment="band 8">
        <r>  0.0000  0.5119  0.0291 </r>
        <r>  0.0000  0.0585  0.0000 </r>
       </set>
      </set>
      <set comment="kpoint 7">
       <set comment="band 1">
        <r>  0.2545  0.0234  0.0032 </r>
        <r>  0.3865  0.0022  0.0000 </r>
       </set>
       <set comment="band 2">
        <r>  0.2614  0.0951  0.0483 </r>
        <r>  0.1203  0.1765  0.0000 </r>
       </set>
       <set comment="band 3">
        <r>  0.0000  0.2131  0.0700 </r>
        <r>  0.0000  0.3492  0.0000 </r>
       </set>
       <set comment="band 4">
        <r>  0.0207  0.1950  0.0719 </r>
        <r>  0.0086  0.3378  0.0000 </r>
       </set>
       <set comment="band 5">
        <r>  0.2233  0.0784  0.0270 </r>
        <r>  0.1213  0.1968  0.0000 </r>
       </set>
       <set comment="band 6">
        <r>  0.0404  0.4006  0.0305 </r>
        <r>  0.0238  0.0414  0.0000 </r>
       </set>
       <set comment="band 7">
        <r>  0.0070  0.3850  0.0542 </r>
        <r>  0.0042  0.1021  0.0000 </r>
       </set>
       <set comment="band 8">
        <r>  0.0000  0.4581  0.0501 </r>
        <r>  0.0000  0.0823  0.0000 </r>
       </set>
      </set>
      <set comment="kpoint 8">
       <set comment="band 1">
        <r>  0.2050  0.0466  0.0078 </r>
        <r>  0.4117  0.0033  0.0000 </r>
       </set>
       <set comment="band 2">
        <r>  0.3106  0.1165  0.0259 </r>
        <r>  0.0864  0.1549  0.0000 </r>
       </set>
       <set comment="band 3">
        <r>  0.0418  0.2150  0.0555 </r>
        <r>  0.0147  0.3036  0.0000 </r>
       </set>
       <set comment="band 4">
        <r>  0.0000  0.2430  0.0545 </r>
        <r>  0.0000  0.3360  0.0000 </r>
       </set>
       <set comment="band 5">
        <r>  0.2287  0.1121  0.0320 </r>
        <r>  0.0985  0.1455  0.0000 </r>
       </set>
       <set comment="band 6">
        <r>  0.0316  0.3666  0.0534 </r>
        <r>  0.0214  0.0687  0.0000 </r>
       </set>
       <set comment="band 7">
        <r>  0.0000  0.3878  0.0870 </r>
        <r>  0.0000  0.0813  0.0000 </r>
       </set>
       <set comment="band 8">
        <r>  0.0159  0.1818  0.0994 </r>
        <r>  0.0158  0.1452  0.0000 </r>
       </set>
      </set>
      <set comment="kpoint 9">
       <set comment="band 1">
        <r>  0.1417  0.0704  0.0144 </r>
        <r>  0.4508  0.0023  0.0000 </r>
       </set>
       <set comment="band 2">
        <r>  0.3750  0.1179  0.0072 </r>
        <r>  0.0426  0.1431  0.0000 </r>
       </set>
       <set comment="band 3">
        <r>  0.0520  0.2299  0.0445 </r>
        <r>  0.0173  0.2836  0.0000 </r>
       </set>
       <set comment="band 4">
        <r>  0.0000  0.2562  0.0469 </r>
        <r>  0.0000  0.3337  0.0000 </r>
       </set>
       <set comment="band 5">
        <r>  0.2397  0.1084  0.0380 </r>
        <r>  0.0958  0.1250  0.0000 </r>
       </set>
       <set comment="band 6">
        <r>  0.0132  0.2991  0.0994 </r>
        <r>  0.0064  0.0578  0.0000 </r>
       </set>
       <set comment="band 7">
        <r>  0.0000  0.3356  0.1165 </r>
        <r>  0.0000  0.0675  0.0000 </r>
       </set>
       <set comment="band 8">
        <r>  0.0203  0.1402  0.0991 </r>
        <r>  0.0169  0.2119  0.0000 </r>
       </set>
      </set>
      <set comment="kpoint 10">
       <set comment="band 1">
        <r>  0.1151  0.0787  0.0174 </r>
        <r>  0.4694  0.0012  0.0000 </r>
       </set>
       <set comment="band 2">
        <r>  0.4020  0.1159  0.0011 </r>
        <r>  0.0230  0.1410  0.0000 </r>
       </set>
       <set comment="band 3">
        <r>  0.0522  0.2397  0.0393 </r>
        <r>  0.0167  0.2752  0.0000 </r>
       </set>
       <set comment="band 4">
        <r>  0.0000  0.2517  0.0485 </r>
        <r>  0.0000  0.3405  0.0000 </r>
       </set>
       <set comment="band 5">
        <r>  0.2470  0.1085  0.0373 </r>
        <r>  0.0979  0.1171  0.0000 </r>
       </set>
       <set comment="band 6">
        <r>  0.0076  0.2622  0.1166 </r>
        <r>  0.0035  0.0599  0.0000 </r>
       </set>
       <set comment="band 7">
        <r>  0.0000  0.3357  0.1177 </r>
        <r>  0.0000  0.0572  0.0000 </r>
       </set>
       <set comment="band 8">
        <r>  0.0166  0.1195  0.0991 </r>
        <r>  0.0071  0.2671  0.0000 </r>
       </set>
      </set>
      <set comment="kpoint 11">
       <set comment="band 1">
        <r>  0.1632  0.0627  0.0122 </r>
        <r>  0.4371  0.0029  0.0000 </r>
       </set>
       <set comment="band 2">
        <r>  0.3531  0.1198  0.0124 </r>
        <r>  0.0576  0.1456  0.0000 </r>
       </set>
       <set comment="band 3">
        <r>  0.0440  0.2442  0.0401 </r>
        <r>  0.0133  0.2770  0.0000 </r>
       </set>
       <set comment="band 4">
        <r>  0.0000  0.2289  0.0597 </r>
        <r>  0.0000  0.3558  0.0000 </r>
       </set>
       <set comment="band 5">
        <r>  0.2464  0.1205  0.0296 </r>
        <r>  0.1022  0.1191  0.0000 </r>
       </set>
       <set comment="band 6">
        <r>  0.0069  0.2818  0.1100 </r>
        <r>  0.0049  0.0664  0.0000 </r>
       </set>
       <set comment="band 7">
        <r>  0.0000  0.3948  0.0895 </r>
        <r>  0.0000  0.0513  0.0000 </r>
       </set>
       <set comment="band 8">
        <r>  0.0312  0.1279  0.0749 </r>
        <r>  0.0233  0.2376  0.0000 </r>
       </set>
      </set>
      <set comment="kpoint 12">
       <set comment="band 1">
        <r>  0.2244  0.0378  0.0060 </r>
        <r>  0.4015  0.0030  0.0000 </r>
       </set>
       <set comment="band 2">
        <r>  0.2902  0.1139  0.0328 </r>
        <r>  0.0991  0.1611  0.0000 </r>
       </set>
       <set comment="band 3">
        <r>  0.0276  0.2409  0.0482 </r>
        <r>  0.0067  0.2923  0.0000 </r>
       </set>
       <set comment="band 4">
        <r>  0.0000  0.1891  0.0786 </r>
        <r>  0.0000  0.3783  0.0000 </r>
       </set>
       <set comment="band 5">
        <r>  0.2399  0.1307  0.0163 </r>
        <r>  0.1162  0.1377  0.0000 </r>
       </set>
       <set comment="band 6">
        <r>  0.0338  0.2969  0.0769 </r>
        <r>  0.0247  0.1036  0.0000 </r>
       </set>
       <set comment="band 7">
        <r>  0.0000  0.4953  0.0432 </r>
        <r>  0.0000  0.0425  0.0000 </r>
       </set>
       <set comment="band 8">
        <r>  0.0154  0.2239  0.0705 </r>
        <r>  0.0099  0.1514  0.0000 </r>
       </set>
      </set>
      <set comment="kpoint 13">
       <set comment="band 1">
        <r>  0.2663  0.0170  0.0023 </r>
        <r>  0.3815  0.0016  0.0000 </r>
       </set>
       <set comment="band 2">
        <r>  0.2392  0.0971  0.0524 </r>
        <r>  0.1227  0.1857  0.0000 </r>
       </set>
       <set comment="band 3">
        <r>  0.0090  0.2118  0.0690 </r>
        <r>  0.0005  0.3325  0.0000 </r>
       </set>
       <set comment="band 4">
        <r>  0.0000  0.1464  0.0982 </r>
        <r>  0.0000  0.4000  0.0000 </r>
       </set>
       <set comment="band 5">
        <r>  0.2324  0.0994  0.0160 </r>
        <r>  0.1480  0.1684  0.0000 </r>
       </set>
       <set comment="band 6">
        <r>  0.0440  0.3442  0.0509 </r>
        <r>  0.0160  0.0785  0.0000 </r>
       </set>
       <set comment="band 7">
        <r>  0.0000  0.5549  0.0182 </r>
        <r>  0.0000  0.0270  0.0000 </r>
       </set>
       <set comment="band 8">
        <r>  0.0033  0.4155  0.0434 </r>
        <r>  0.0028  0.0992  0.0000 </r>
       </set>
      </set>
      <set comment="kpoint 14">
       <set comment="band 1">
        <r>  0.2335  0.0346  0.0048 </r>
        <r>  0.3954  0.0030  0.0000 </r>
       </set>
       <set comment="band 2">
        <r>  0.3245  0.0603  0.0488 </r>
        <r>  0.1297  0.1619  0.0000 </r>
       </set>
       <set comment="band 3">
        <r>  0.0000  0.2487  0.0529 </r>
        <r>  0.0000  0.3249  0.0000 </r>
       </set>
       <set comment="band 4">
        <r>  0.0000  0.2487  0.0529 </r>
        <r>  0.0000  0.3249  0.0000 </r>
       </set>
       <set comment="band 5">
        <r>  0.2349  0.0994  0.0592 </r>
        <r>  0.0078  0.1480  0.0000 </r>
       </set>
       <set comment="band 6">
        <r>  0.0293  0.3098  0.0152 </r>
        <r>  0.1124  0.0910  0.0000 </r>
       </set>
       <set comment="band 7">
        <r>  0.0000  0.4194  0.0593 </r>
        <r>  0.0000  0.1135  0.0000 </r>
       </set>
       <set comment="band 8">
        <r>  0.0000  0.4194  0.0593 </r>
        <r>  0.0000  0.1135  0.0000 </r>
       </set>
      </set>
      <set comment="kpoint 15">
       <set comment="band 1">
        <r>  0.1881  0.0558  0.0086 </r>
        <r>  0.4180  0.0039  0.0000 </r>
       </set>
       <set comment="band 2">
        <r>  0.3747  0.0678  0.0333 </r>
        <r>  0.1024  0.1494  0.0000 </r>
       </set>
       <set comment="band 3">
        <r>  0.0194  0.2639  0.0386 </r>
        <r>  0.0046  0.2886  0.0000 </r>
       </set>
       <set comment="band 4">
        <r>  0.0000  0.2735  0.0395 </r>
        <r>  0.0000  0.3118  0.0000 </r>
       </set>
       <set comment="band 5">
        <r>  0.1506  0.1756  0.0651 </r>
        <r>  0.0251  0.0971  0.0000 </r>
       </set>
       <set comment="band 6">
        <r>  0.1069  0.1833  0.0455 </r>
        <r>  0.0713  0.1395  0.0000 </r>
       </set>
       <set comment="band 7">
        <r>  0.0049  0.2351  0.1277 </r>
        <r>  0.0174  0.0849  0.0000 </r>
       </set>
       <set comment="band 8">
        <r>  0.0000  0.3688  0.0833 </r>
        <r>  0.0000  0.1206  0.0000 </r>
       </set>
      </set>
      <set comment="kpoint 16">
       <set comment="band 1">
        <r>  0.1231  0.0808  0.0151 </r>
        <r>  0.4564  0.0032  0.0000 </r>
       </set>
       <set comment="band 2">
        <r>  0.4375  0.0736  0.0142 </r>
        <r>  0.0570  0.1403  0.0000 </r>
       </set>
       <set comment="band 3">
        <r>  0.0422  0.2647  0.0297 </r>
        <r>  0.0103  0.2521  0.0000 </r>
       </set>
       <set comment="band 4">
        <r>  0.0000  0.2842  0.0332 </r>
        <r>  0.0000  0.3094  0.0000 </r>
       </set>
       <set comment="band 5">
        <r>  0.1550  0.1436  0.0723 </r>
        <r>  0.0476  0.1028  0.0000 </r>
       </set>
       <set comment="band 6">
        <r>  0.1027  0.1534  0.0606 </r>
        <r>  0.0287  0.1764  0.0000 </r>
       </set>
       <set comment="band 7">
        <r>  0.0024  0.2141  0.1424 </r>
        <r>  0.0310  0.0670  0.0000 </r>
       </set>
       <set comment="band 8">
        <r>  0.0000  0.3125  0.1137 </r>
        <r>  0.0000  0.1041  0.0000 </r>
       </set>
      </set>
      <set comment="kpoint 17">
       <set comment="band 1">
        <r>  0.0761  0.0952  0.0203 </r>
        <r>  0.4885  0.0014  0.0000 </r>
       </set>
       <set comment="band 2">
        <r>  0.4839  0.0735  0.0028 </r>
        <r>  0.0214  0.1375  0.0000 </r>
       </set>
       <set comment="band 3">
        <r>  0.0490  0.2670  0.0247 </r>
        <r>  0.0121  0.2345  0.0000 </r>
       </set>
       <set comment="band 4">
        <r>  0.0000  0.2799  0.0352 </r>
        <r>  0.0000  0.3163  0.0000 </r>
       </set>
       <set comment="band 5">
        <r>  0.1732  0.1387  0.0684 </r>
        <r>  0.0554  0.1024  0.0000 </r>
       </set>
       <set comment="band 6">
        <r>  0.0747  0.1205  0.0740 </r>
        <r>  0.0132  0.1855  0.0000 </r>
       </set>
       <set comment="band 7">
        <r>  0.0000  0.3044  0.1155 </r>
        <r>  0.0000  0.0908  0.0000 </r>
       </set>
       <set comment="band 8">
        <r>  0.0176  0.1819  0.1490 </r>
        <r>  0.0272  0.1355  0.0000 </r>
       </set>
      </set>
      <set comment="kpoint 18">
       <set comment="band 1">
        <r>  0.1071  0.0844  0.0174 </r>
        <r>  0.4690  0.0024  0.0000 </r>
       </set>
       <set comment="band 2">
        <r>  0.4540  0.0791  0.0080 </r>
        <r>  0.0427  0.1383  0.0000 </r>
       </set>
       <set comment="band 3">
        <r>  0.0405  0.2752  0.0226 </r>
        <r>  0.0079  0.2324  0.0000 </r>
       </set>
       <set comment="band 4">
        <r>  0.0000  0.2598  0.0454 </r>
        <r>  0.0000  0.3324  0.0000 </r>
       </set>
       <set comment="band 5">
        <r>  0.1989  0.1453  0.0519 </r>
        <r>  0.0645  0.1162  0.0000 </r>
       </set>
       <set comment="band 6">
        <r>  0.0460  0.1252  0.0830 </r>
        <r>  0.0103  0.1635  0.0000 </r>
       </set>
       <set comment="band 7">
        <r>  0.0000  0.3582  0.0874 </r>
        <r>  0.0000  0.0824  0.0000 </r>
       </set>
       <set comment="band 8">
        <r>  0.0302  0.1495  0.1216 </r>
        <r>  0.0333  0.1947  0.0000 </r>
       </set>
      </set>
      <set comment="kpoint 19">
       <set comment="band 1">
        <r>  0.1733  0.0600  0.0108 </r>
        <r>  0.4288  0.0036  0.0000 </r>
       </set>
       <set comment="band 2">
        <r>  0.3768  0.0898  0.0225 </r>
        <r>  0.0848  0.1460  0.0000 </r>
       </set>
       <set comment="band 3">
        <r>  0.0305  0.2762  0.0272 </r>
        <r>  0.0023  0.2472  0.0000 </r>
       </set>
       <set comment="band 4">
        <r>  0.0000  0.2252  0.0621 </r>
        <r>  0.0000  0.3564  0.0000 </r>
       </set>
       <set comment="band 5">
        <r>  0.2299  0.1444  0.0249 </r>
        <r>  0.0845  0.1469  0.0000 </r>
       </set>
       <set comment="band 6">
        <r>  0.0479  0.2179  0.0671 </r>
        <r>  0.0201  0.1173  0.0000 </r>
       </set>
       <set comment="band 7">
        <r>  0.0013  0.1415  0.1246 </r>
        <r>  0.0264  0.1620  0.0000 </r>
       </set>
       <set comment="band 8">
        <r>  0.0000  0.4472  0.0539 </r>
        <r>  0.0000  0.0648  0.0000 </r>
       </set>
      </set>
      <set comment="kpoint 20">
       <set comment="band 1">
        <r>  0.1453  0.0754  0.0119 </r>
        <r>  0.4392  0.0042  0.0000 </r>
       </set>
       <set comment="band 2">
        <r>  0.4432  0.0410  0.0287 </r>
        <r>  0.0864  0.1413  0.0000 </r>
       </set>
       <set comment="band 3">
        <r>  0.0000  0.2959  0.0271 </r>
        <r>  0.0000  0.2975  0.0000 </r>
       </set>
       <set comment="band 4">
        <r>  0.0000  0.2959  0.0271 </r>
        <r>  0.0000  0.2975  0.0000 </r>
       </set>
       <set comment="band 5">
        <r>  0.0948  0.2461  0.0691 </r>
        <r>  0.0260  0.0243  0.0000 </r>
       </set>
       <set comment="band 6">
        <r>  0.1510  0.0688  0.0880 </r>
        <r>  0.0488  0.1343  0.0000 </r>
       </set>
       <set comment="band 7">
        <r>  0.0000  0.3620  0.0792 </r>
        <r>  0.0000  0.1518  0.0000 </r>
       </set>
       <set comment="band 8">
        <r>  0.0453  0.0110  0.1541 </r>
        <r>  0.0445  0.1812  0.0000 </r>
       </set>
      </set>
      <set comment="kpoint 21">
       <set comment="band 1">
        <r>  0.0811  0.1000  0.0175 </r>
        <r>  0.4765  0.0030  0.0000 </r>
       </set>
       <set comment="band 2">
        <r>  0.5182  0.0276  0.0162 </r>
        <r>  0.0482  0.1360  0.0000 </r>
       </set>
       <set comment="band 3">
        <r>  0.0078  0.3040  0.0193 </r>
        <r>  0.0010  0.2661  0.0000 </r>
       </set>
       <set comment="band 4">
        <r>  0.0000  0.3062  0.0209 </r>
        <r>  0.0000  0.2929  0.0000 </r>
       </set>
       <set comment="band 5">
        <r>  0.0793  0.2053  0.0898 </r>
        <r>  0.0377  0.0409  0.0000 </r>
       </set>
       <set comment="band 6">
        <r>  0.1553  0.0725  0.0927 </r>
        <r>  0.0261  0.1338  0.0000 </r>
       </set>
       <set comment="band 7">
        <r>  0.0312  0.1884  0.1015 </r>
        <r>  0.0294  0.1567  0.0000 </r>
       </set>
       <set comment="band 8">
        <r>  0.0000  0.3154  0.0979 </r>
        <r>  0.0000  0.1459  0.0000 </r>
       </set>
      </set>
      <set comment="kpoint 22">
       <set comment="band 1">
        <r>  0.0283  0.1159  0.0232 </r>
        <r>  0.5118  0.0008  0.0000 </r>
       </set>
       <set comment="band 2">
        <r>  0.5847  0.0181  0.0053 </r>
        <r>  0.0127  0.1337  0.0000 </r>
       </set>
       <set comment="band 3">
        <r>  0.0076  0.3067  0.0153 </r>
        <r>  0.0013  0.2342  0.0000 </r>
       </set>
       <set comment="band 4">
        <r>  0.0000  0.3036  0.0223 </r>
        <r>  0.0000  0.2972  0.0000 </r>
       </set>
       <set comment="band 5">
        <r>  0.1129  0.1537  0.0963 </r>
        <r>  0.0393  0.0583  0.0000 </r>
       </set>
       <set comment="band 6">
        <r>  0.1241  0.0771  0.0852 </r>
        <r>  0.0115  0.1946  0.0000 </r>
       </set>
       <set comment="band 7">
        <r>  0.0258  0.1959  0.1177 </r>
        <r>  0.0324  0.1195  0.0000 </r>
       </set>
       <set comment="band 8">
        <r>  0.0000  0.2860  0.0967 </r>
        <r>  0.0000  0.1305  0.0000 </r>
       </set>
      </set>
      <set comment="kpoint 23">
       <set comment="band 1">
        <r>  0.0444  0.1075  0.0228 </r>
        <r>  0.5053  0.0011  0.0000 </r>
       </set>
       <set comment="band 2">
        <r>  0.5679  0.0317  0.0037 </r>
        <r>  0.0178  0.1332  0.0000 </r>
       </set>
       <set comment="band 3">
        <r>  0.0069  0.3039  0.0151 </r>
        <r>  0.0010  0.2236  0.0000 </r>
       </set>
       <set comment="band 4">
        <r>  0.0000  0.2877  0.0312 </r>
        <r>  0.0000  0.3104  0.0000 </r>
       </set>
       <set comment="band 5">
        <r>  0.1413  0.1513  0.0851 </r>
        <r>  0.0432  0.0731  0.0000 </r>
       </set>
       <set comment="band 6">
        <r>  0.1174  0.0359  0.0476 </r>
        <r>  0.0000  0.2784  0.0000 </r>
       </set>
       <set comment="band 7">
        <r>  0.0000  0.3145  0.0820 </r>
        <r>  0.0000  0.1161  0.0000 </r>
       </set>
       <set comment="band 8">
        <r>  0.0166  0.1018  0.1962 </r>
        <r>  0.0298  0.1634  0.0000 </r>
       </set>
      </set>
      <set comment="kpoint 24">
       <set comment="band 1">
        <r>  0.0269  0.1213  0.0214 </r>
        <r>  0.5071  0.0012  0.0000 </r>
       </set>
       <set comment="band 2">
        <r>  0.5775  0.0079  0.0106 </r>
        <r>  0.0167  0.1348  0.0000 </r>
       </set>
       <set comment="band 3">
        <r>  0.0000  0.3173  0.0142 </r>
        <r>  0.0000  0.2859  0.0000 </r>
       </set>
       <set comment="band 4">
        <r>  0.0000  0.3173  0.0142 </r>
        <r>  0.0000  0.2859  0.0000 </r>
       </set>
       <set comment="band 5">
        <r>  0.0235  0.2498  0.0951 </r>
        <r>  0.0552  0.0058  0.0000 </r>
       </set>
       <set comment="band 6">
        <r>  0.2123  0.0149  0.1054 </r>
        <r>  0.0089  0.1119  0.0000 </r>
       </set>
       <set comment="band 7">
        <r>  0.0690  0.0059  0.0636 </r>
        <r>  0.0125  0.3104  0.0000 </r>
       </set>
       <set comment="band 8">
        <r>  0.0000  0.3721  0.0712 </r>
        <r>  0.0000  0.1980  0.0000 </r>
       </set>
      </set>
      <set comment="kpoint 25">
       <set comment="band 1">
        <r>  0.0006  0.1291  0.0241 </r>
        <r>  0.5246  0.0000  0.0000 </r>
       </set>
       <set comment="band 2">
        <r>  0.6116  0.0006  0.0062 </r>
        <r>  0.0001  0.1343  0.0000 </r>
       </set>
       <set comment="band 3">
        <r>  0.0027  0.3165  0.0132 </r>
        <r>  0.0004  0.2593  0.0000 </r>
       </set>
       <set comment="band 4">
        <r>  0.0000  0.3164  0.0147 </r>
        <r>  0.0000  0.2873  0.0000 </r>
       </set>
       <set comment="band 5">
        <r>  0.0545  0.1960  0.1039 </r>
        <r>  0.0486  0.0301  0.0000 </r>
       </set>
       <set comment="band 6">
        <r>  0.1744  0.0592  0.0988 </r>
        <r>  0.0103  0.1257  0.0000 </r>
       </set>
       <set comment="band 7">
        <r>  0.0538  0.1368  0.0458 </r>
        <r>  0.0041  0.2344  0.0000 </r>
       </set>
       <set comment="band 8">
        <r>  0.0000  0.3145  0.0686 </r>
        <r>  0.0000  0.1753  0.0000 </r>
       </set>
      </set>
      <set comment="kpoint 26">
       <set comment="band 1">
        <r>  0.2189  0.0410  0.0063 </r>
        <r>  0.4033  0.0033  0.0000 </r>
       </set>
       <set comment="band 2">
        <r>  0.3213  0.0873  0.0376 </r>
        <r>  0.1112  0.1584  0.0000 </r>
       </set>
       <set comment="band 3">
        <r>  0.0175  0.2610  0.0414 </r>
        <r>  0.0012  0.2862  0.0000 </r>
       </set>
       <set comment="band 4">
        <r>  0.0086  0.2187  0.0638 </r>
        <r>  0.0039  0.3428  0.0000 </r>
       </set>
       <set comment="band 5">
        <r>  0.2443  0.0590  0.0297 </r>
        <r>  0.0870  0.2188  0.0000 </r>
       </set>
       <set comment="band 6">
        <r>  0.0195  0.3711  0.0480 </r>
        <r>  0.0391  0.0399  0.0000 </r>
       </set>
       <set comment="band 7">
        <r>  0.0024  0.2654  0.0943 </r>
        <r>  0.0010  0.0891  0.0000 </r>
       </set>
       <set comment="band 8">
        <r>  0.0026  0.4073  0.0697 </r>
        <r>  0.0052  0.1045  0.0000 </r>
       </set>
      </set>
      <set comment="kpoint 27">
       <set comment="band 1">
        <r>  0.1606  0.0655  0.0118 </r>
        <r>  0.4356  0.0035  0.0000 </r>
       </set>
       <set comment="band 2">
        <r>  0.3856  0.0906  0.0194 </r>
        <r>  0.0748  0.1448  0.0000 </r>
       </set>
       <set comment="band 3">
        <r>  0.0383  0.2661  0.0303 </r>
        <r>  0.0078  0.2558  0.0000 </r>
       </set>
       <set comment="band 4">
        <r>  0.0063  0.2486  0.0498 </r>
        <r>  0.0022  0.3254  0.0000 </r>
       </set>
       <set comment="band 5">
        <r>  0.2234  0.0987  0.0399 </r>
        <r>  0.0701  0.1800  0.0000 </r>
       </set>
       <set comment="band 6">
        <r>  0.0265  0.2939  0.0770 </r>
        <r>  0.0309  0.0807  0.0000 </r>
       </set>
       <set comment="band 7">
        <r>  0.0136  0.1996  0.0975 </r>
        <r>  0.0070  0.1022  0.0000 </r>
       </set>
       <set comment="band 8">
        <r>  0.0018  0.3158  0.1168 </r>
        <r>  0.0115  0.1107  0.0000 </r>
       </set>
      </set>
      <set comment="kpoint 28">
       <set comment="band 1">
        <r>  0.0992  0.0866  0.0183 </r>
        <r>  0.4751  0.0018  0.0000 </r>
       </set>
       <set comment="band 2">
        <r>  0.4453  0.0894  0.0044 </r>
        <r>  0.0301  0.1391  0.0000 </r>
       </set>
       <set comment="band 3">
        <r>  0.0572  0.2562  0.0285 </r>
        <r>  0.0150  0.2430  0.0000 </r>
       </set>
       <set comment="band 4">
        <r>  0.0018  0.2703  0.0400 </r>
        <r>  0.0004  0.3148  0.0000 </r>
       </set>
       <set comment="band 5">
        <r>  0.2203  0.1051  0.0462 </r>
        <r>  0.0698  0.1638  0.0000 </r>
       </set>
       <set comment="band 6">
        <r>  0.0052  0.2207  0.1149 </r>
        <r>  0.0110  0.0691  0.0000 </r>
       </set>
       <set comment="band 7">
        <r>  0.0276  0.2633  0.0742 </r>
        <r>  0.0023  0.1349  0.0000 </r>
       </set>
       <set comment="band 8">
        <r>  0.0112  0.1850  0.1588 </r>
        <r>  0.0193  0.1572  0.0000 </r>
       </set>
      </set>
      <set comment="kpoint 29">
       <set comment="band 1">
        <r>  0.1327  0.0788  0.0136 </r>
        <r>  0.4483  0.0038  0.0000 </r>
       </set>
       <set comment="band 2">
        <r>  0.4513  0.0509  0.0221 </r>
        <r>  0.0751  0.1400  0.0000 </r>
       </set>
       <set comment="band 3">
        <r>  0.0160  0.2915  0.0237 </r>
        <r>  0.0015  0.2642  0.0000 </r>
       </set>
       <set comment="band 4">
        <r>  0.0042  0.2841  0.0326 </r>
        <r>  0.0011  0.2941  0.0000 </r>
       </set>
       <set comment="band 5">
        <r>  0.1112  0.1887  0.0847 </r>
        <r>  0.0118  0.0934  0.0000 </r>
       </set>
       <set comment="band 6">
        <r>  0.1339  0.1150  0.0649 </r>
        <r>  0.0627  0.1493  0.0000 </r>
       </set>
       <set comment="band 7">
        <r>  0.0101  0.2307  0.1136 </r>
        <r>  0.0240  0.0863  0.0000 </r>
       </set>
       <set comment="band 8">
        <r>  0.0007  0.3601  0.0932 </r>
        <r>  0.0043  0.1469  0.0000 </r>
       </set>
      </set>
      <set comment="kpoint 30">
       <set comment="band 1">
        <r>  0.0662  0.1018  0.0202 </r>
        <r>  0.4897  0.0021  0.0000 </r>
       </set>
       <set comment="band 2">
        <r>  0.5315  0.0385  0.0085 </r>
        <r>  0.0328  0.1350  0.0000 </r>
       </set>
       <set comment="band 3">
        <r>  0.0227  0.2914  0.0196 </r>
        <r>  0.0040  0.2392  0.0000 </r>
       </set>
       <set comment="band 4">
        <r>  0.0017  0.2966  0.0265 </r>
        <r>  0.0002  0.2831  0.0000 </r>
       </set>
       <set comment="band 5">
        <r>  0.1336  0.1311  0.0873 </r>
        <r>  0.0330  0.1217  0.0000 </r>
       </set>
       <set comment="band 6">
        <r>  0.1124  0.1025  0.0793 </r>
        <r>  0.0220  0.1907  0.0000 </r>
       </set>
       <set comment="band 7">
        <r>  0.0040  0.2573  0.1102 </r>
        <r>  0.0308  0.0600  0.0000 </r>
       </set>
       <set comment="band 8">
        <r>  0.0066  0.2489  0.1289 </r>
        <r>  0.0072  0.1297  0.0000 </r>
       </set>
      </set>
      <set comment="kpoint 31">
       <set comment="band 1">
        <r>  0.0443  0.1075  0.0229 </r>
        <r>  0.5054  0.0010  0.0000 </r>
       </set>
       <set comment="band 2">
        <r>  0.5587  0.0371  0.0030 </r>
        <r>  0.0162  0.1340  0.0000 </r>
       </set>
       <set comment="band 3">
        <r>  0.0203  0.2928  0.0179 </r>
        <r>  0.0041  0.2280  0.0000 </r>
       </set>
       <set comment="band 4">
        <r>  0.0027  0.2923  0.0284 </r>
        <r>  0.0006  0.2868  0.0000 </r>
       </set>
       <set comment="band 5">
        <r>  0.1604  0.1181  0.0802 </r>
        <r>  0.0367  0.1386  0.0000 </r>
       </set>
       <set comment="band 6">
        <r>  0.0686  0.0922  0.0885 </r>
        <r>  0.0115  0.1943  0.0000 </r>
       </set>
       <set comment="band 7">
        <r>  0.0335  0.2513  0.0767 </r>
        <r>  0.0239  0.1275  0.0000 </r>
       </set>
       <set comment="band 8">
        <r>  0.0006  0.1283  0.2011 </r>
        <r>  0.0100  0.0640  0.0000 </r>
       </set>
      </set>
      <set comment="kpoint 32">
       <set comment="band 1">
        <r>  0.0959  0.0898  0.0180 </r>
        <r>  0.4736  0.0027  0.0000 </r>
       </set>
       <set comment="band 2">
        <r>  0.4928  0.0552  0.0104 </r>
        <r>  0.0473  0.1361  0.0000 </r>
       </set>
       <set comment="band 3">
        <r>  0.0219  0.2916  0.0189 </r>
        <r>  0.0021  0.2323  0.0000 </r>
       </set>
       <set comment="band 4">
        <r>  0.0049  0.2737  0.0379 </r>
        <r>  0.0013  0.3028  0.0000 </r>
       </set>
       <set comment="band 5">
        <r>  0.2114  0.0997  0.0557 </r>
        <r>  0.0442  0.1811  0.0000 </r>
       </set>
       <set comment="band 6">
        <r>  0.0050  0.1703  0.1196 </r>
        <r>  0.0305  0.1364  0.0000 </r>
       </set>
       <set comment="band 7">
        <r>  0.0430  0.2355  0.0607 </r>
        <r>  0.0141  0.0929  0.0000 </r>
       </set>
       <set comment="band 8">
        <r>  0.0012  0.2754  0.1319 </r>
        <r>  0.0144  0.1495  0.0000 </r>
       </set>
      </set>
      <set comment="kpoint 33">
       <set comment="band 1">
        <r>  0.0234  0.1200  0.0227 </r>
        <r>  0.5118  0.0010  0.0000 </r>
       </set>
       <set comment="band 2">
        <r>  0.5906  0.0086  0.0079 </r>
        <r>  0.0141  0.1339  0.0000 </r>
       </set>
       <set comment="band 3">
        <r>  0.0075  0.3071  0.0164 </r>
        <r>  0.0009  0.2601  0.0000 </r>
       </set>
       <set comment="band 4">
        <r>  0.0000  0.3150  0.0163 </r>
        <r>  0.0001  0.2675  0.0000 </r>
       </set>
       <set comment="band 5">
        <r>  0.0164  0.2262  0.1071 </r>
        <r>  0.0472  0.0491  0.0000 </r>
       </set>
       <set comment="band 6">
        <r>  0.2089  0.0274  0.0892 </r>
        <r>  0.0079  0.1552  0.0000 </r>
       </set>
       <set comment="band 7">
        <r>  0.0240  0.2193  0.0964 </r>
        <r>  0.0238  0.1388  0.0000 </r>
       </set>
       <set comment="band 8">
        <r>  0.0237  0.2285  0.0662 </r>
        <r>  0.0050  0.1837  0.0000 </r>
       </set>
      </set>
      <set comment="kpoint 34">
       <set comment="band 1">
        <r>  0.0056  0.1233  0.0253 </r>
        <r>  0.5256  0.0001  0.0000 </r>
       </set>
       <set comment="band 2">
        <r>  0.6228  0.0044  0.0031 </r>
        <r>  0.0018  0.1326  0.0000 </r>
       </set>
       <set comment="band 3">
        <r>  0.0003  0.3104  0.0151 </r>
        <r>  0.0000  0.2354  0.0000 </r>
       </set>
       <set comment="band 4">
        <r>  0.0029  0.3082  0.0191 </r>
        <r>  0.0006  0.2694  0.0000 </r>
       </set>
       <set comment="band 5">
        <r>  0.1018  0.1390  0.1017 </r>
        <r>  0.0321  0.0983  0.0000 </r>
       </set>
       <set comment="band 6">
        <r>  0.1296  0.0687  0.0878 </r>
        <r>  0.0091  0.1998  0.0000 </r>
       </set>
       <set comment="band 7">
        <r>  0.0042  0.2807  0.1011 </r>
        <r>  0.0401  0.1063  0.0000 </r>
       </set>
       <set comment="band 8">
        <r>  0.0295  0.1770  0.1168 </r>
        <r>  0.0089  0.0972  0.0000 </r>
       </set>
      </set>
      <set comment="kpoint 35">
       <set comment="band 1">
        <r>  0.0146  0.1192  0.0250 </r>
        <r>  0.5212  0.0005  0.0000 </r>
       </set>
       <set comment="band 2">
        <r>  0.6170  0.0087  0.0028 </r>
        <r>  0.0073  0.1321  0.0000 </r>
       </set>
       <set comment="band 3">
        <r>  0.0044  0.3019  0.0178 </r>
        <r>  0.0007  0.2364  0.0000 </r>
       </set>
       <set comment="band 4">
        <r>  0.0011  0.3105  0.0188 </r>
        <r>  0.0001  0.2540  0.0000 </r>
       </set>
       <set comment="band 5">
        <r>  0.2130  0.0167  0.0705 </r>
        <r>  0.0015  0.2539  0.0000 </r>
       </set>
       <set comment="band 6">
        <r>  0.0343  0.1082  0.1265 </r>
        <r>  0.0219  0.1602  0.0000 </r>
       </set>
       <set comment="band 7">
        <r>  0.0015  0.3325  0.0820 </r>
        <r>  0.0555  0.0235  0.0000 </r>
       </set>
       <set comment="band 8">
        <r>  0.0094  0.2101  0.1458 </r>
        <r>  0.0148  0.0534  0.0000 </r>
       </set>
      </set>
     </set>
    </set>
   </array>
  </projected>
 </calculation>
 <structure name="finalpos" >
  <crystal>
   <varray name="basis" >
    <v>       0.00000000       3.00019994       3.00019994 </v>
    <v>       3.00019994       0.00000000       3.00019994 </v>
    <v>       3.00019994       3.00019994       0.00000000 </v>
   </varray>
   <i name="volume">     54.01079745 </i>
   <varray name="rec_basis" >
    <v>      -0.16665556       0.16665556       0.16665556 </v>
    <v>       0.16665556      -0.16665556       0.16665556 </v>
    <v>       0.16665556       0.16665556      -0.16665556 </v>
   </varray>
  </crystal>
  <varray name="positions" >
   <v>       0.00000000       0.00000000       0.00000000 </v>
   <v>       0.25000000       0.25000000       0.25000000 </v>
  </varray>
 </structure>
</modeling>
