InP                                     
           1
     0.000000    3.000200    3.000200
     3.000200    0.000000    3.000200
     3.000200    3.000200    0.000000
   In   P 
   1   1
Direct configuration=     1
   0.00000000  0.00000000  0.00000000
   0.25000000  0.25000000  0.25000000
