   2   2   1   0
  0.3012622E+02  0.4400445E-09  0.4400445E-09  0.4400445E-09  0.5000000E-15
  1.000000000000000E-004
  CAR 
 GaSb                                    
     12.82932170     -8.61886339   11      3.47636704      1.00000000
     -8.619  0.0000E+00  0.0000E+00
     -6.474  0.1457E-03  0.5664E-02
     -4.329  0.0000E+00  0.2000E-01
     -2.184  0.1093E-03  0.3105E-01
     -0.040  0.4371E-03  0.3895E-01
      2.105  0.1694E-08  0.6926E-01
      4.250  0.1457E-03  0.8082E-01
      6.395  0.4371E-03  0.1059E+00
      8.540  0.1457E-03  0.1359E+00
     10.685  0.2179E-03  0.1588E+00
     12.829  0.0000E+00  0.1600E+00
     12.82932170     -8.61886339   11      3.47636704      1.00000000
     -8.619  0.0000E+00  0.0000E+00  0.0000E+00
     -6.474  0.2483E-02  0.4037E-03  0.6327E-04
     -4.329  0.0000E+00  0.0000E+00  0.0000E+00
     -2.184  0.4777E-02  0.3267E-03  0.8544E-04
     -0.040  0.1303E-01  0.3480E-02  0.6715E-03
      2.105  0.4514E-21  0.4057E-07  0.3019E-08
      4.250  0.3743E-02  0.1420E-02  0.1651E-03
      6.395  0.7097E-03  0.1586E-01  0.5376E-03
      8.540  0.9901E-03  0.3154E-02  0.4071E-03
     10.685  0.2355E-12  0.6847E-02  0.1126E-02
     12.829  0.0000E+00  0.0000E+00  0.0000E+00
     12.82932170     -8.61886339   11      3.47636704      1.00000000
     -8.619  0.0000E+00  0.0000E+00  0.0000E+00
     -6.474  0.6298E-02  0.6995E-04  0.5782E-05
     -4.329  0.0000E+00  0.0000E+00  0.0000E+00
     -2.184  0.1158E-02  0.1179E-02  0.4252E-04
     -0.040  0.6933E-02  0.5884E-02  0.1908E-03
      2.105  0.1647E-21  0.5164E-07  0.6532E-09
      4.250  0.1878E-02  0.1278E-02  0.2002E-03
      6.395  0.4409E-02  0.7023E-03  0.1498E-02
      8.540  0.9797E-03  0.2444E-02  0.4039E-03
     10.685  0.1484E-12  0.4084E-02  0.1469E-02
     12.829  0.0000E+00  0.0000E+00  0.0000E+00
