    2    2  100    1
  0.3012622E+02  0.4400445E-09  0.4400445E-09  0.4400445E-09  0.5000000E-15
  1.000000000000000E-004
  CAR 
 GaSb                                    
      8     29      8
 
  0.0000000E+00  0.0000000E+00  0.0000000E+00  0.1953125E-02
    1       -7.643946   1.000000
    2        3.200961   1.000000
    3        3.473321   0.666674
    4        3.473321   0.666674
    5        3.473322   0.666652
    6        6.282367   0.000000
    7        6.282367   0.000000
    8        6.282367   0.000000
 
  0.1250000E+00  0.2408238E-17 -0.1643086E-17  0.1562500E-01
    1       -7.497980   1.000000
    2        1.430791   1.000000
    3        3.242666   1.000000
    4        3.242666   1.000000
    5        4.352831   0.000000
    6        6.604452   0.000000
    7        6.604452   0.000000
    8        6.832392   0.000000
 
  0.2500000E+00  0.4816476E-17 -0.3286171E-17  0.1562500E-01
    1       -7.083980   1.000000
    2       -0.463178   1.000000
    3        2.827262   1.000000
    4        2.827262   1.000000
    5        4.186260   0.000000
    6        7.101163   0.000000
    7        7.101164   0.000000
    8        8.479228   0.000000
 
  0.3750000E+00 -0.3132634E-16 -0.1572473E-16  0.1562500E-01
    1       -6.517994   1.000000
    2       -1.975985   1.000000
    3        2.514936   1.000000
    4        2.514936   1.000000
    5        3.906008   0.000000
    6        7.248857   0.000000
    7        7.248857   0.000000
    8       10.044296   0.000000
 
  0.5000000E+00  0.9632952E-17 -0.6572343E-17  0.7812500E-02
    1       -6.189575   1.000000
    2       -2.627841   1.000000
    3        2.403694   1.000000
    4        2.403694   1.000000
    5        3.800231   0.000000
    6        7.234328   0.000000
    7        7.234328   0.000000
    8        9.972710   0.000000
 
  0.1250000E+00  0.1250000E+00  0.3060609E-17  0.1171875E-01
    1       -7.448484   1.000000
    2        1.343089   1.000000
    3        2.852874   1.000000
    4        2.852874   1.000000
    5        5.024648   0.000000
    6        5.921183   0.000000
    7        7.167041   0.000000
    8        7.167041   0.000000
 
  0.2500000E+00  0.1250000E+00  0.3743802E-17  0.4687500E-01
    1       -7.119926   1.000000
    2       -0.076629   1.000000
    3        2.348309   1.000000
    4        2.410780   1.000000
    5        5.192910   0.000000
    6        6.179468   0.000000
    7        7.835541   0.000000
    8        8.040350   0.000000
 
  0.3750000E+00  0.1250000E+00 -0.1755867E-17  0.4687500E-01
    1       -6.585899   1.000000
    2       -1.589167   1.000000
    3        1.794876   1.000000
    4        2.148862   1.000000
    5        5.003791   0.000000
    6        6.779354   0.000000
    7        8.008916   0.000000
    8        8.703856   0.000000
 
  0.5000000E+00  0.1250000E+00  0.1356115E-16  0.4687500E-01
    1       -6.118065   1.000000
    2       -2.538962   1.000000
    3        1.419003   1.000000
    4        2.136851   1.000000
    5        4.831587   0.000000
    6        7.017064   0.000000
    7        7.806794   0.000000
    8        9.977624   0.000000
 
 -0.3750000E+00  0.1250000E+00  0.8102648E-17  0.4687500E-01
    1       -6.237556   1.000000
    2       -2.317303   1.000000
    3        1.312372   1.000000
    4        2.370681   1.000000
    5        4.834444   0.000000
    6        7.218721   0.000000
    7        7.561196   0.000000
    8       10.083539   0.000000
 
 -0.2500000E+00  0.1250000E+00 -0.1050054E-16  0.4687500E-01
    1       -6.781362   1.000000
    2       -1.115183   1.000000
    3        1.534075   1.000000
    4        2.785064   1.000000
    5        4.980927   0.000000
    6        7.216405   0.000000
    7        7.336532   0.000000
    8        8.659462   0.000000
 
 -0.1250000E+00  0.1250000E+00  0.4816476E-17  0.2343750E-01
    1       -7.260758   1.000000
    2        0.368109   1.000000
    3        2.204499   1.000000
    4        3.196906   1.000000
    5        4.942524   0.000000
    6        6.705627   0.000000
    7        6.758693   0.000000
    8        7.910797   0.000000
 
  0.2500000E+00  0.2500000E+00  0.6121219E-17  0.1171875E-01
    1       -6.881501   1.000000
    2       -0.553485   1.000000
    3        1.933724   1.000000
    4        1.933725   1.000000
    5        4.782977   0.000000
    6        6.120323   0.000000
    7        8.849713   0.000000
    8        8.849713   0.000000
 
  0.3750000E+00  0.2500000E+00  0.1417524E-17  0.4687500E-01
    1       -6.415946   1.000000
    2       -1.597468   1.000000
    3        1.291825   1.000000
    4        1.645175   1.000000
    5        4.975918   0.000000
    6        6.150145   0.000000
    7        8.780789   0.000000
    8        9.380808   0.000000
 
  0.5000000E+00  0.2500000E+00  0.7487603E-17  0.4687500E-01
    1       -5.908805   1.000000
    2       -2.491492   1.000000
    3        0.590398   1.000000
    4        1.627414   1.000000
    5        5.092973   0.000000
    6        7.306904   0.000000
    7        8.593038   0.000000
    8        9.200097   0.000000
 
 -0.3750000E+00  0.2500000E+00 -0.1105417E-15  0.4687500E-01
    1       -5.830819   1.000000
    2       -2.604909   1.000000
    3        0.250846   1.000000
    4        1.882248   1.000000
    5        5.225713   0.000000
    6        8.001376   0.000000
    7        8.741716   0.000000
    8        9.591135   0.000000
 
 -0.2500000E+00  0.2500000E+00  0.9632952E-17  0.2343750E-01
    1       -6.282589   1.000000
    2       -1.905854   1.000000
    3        0.495093   1.000000
    4        2.338816   1.000000
    5        5.404266   0.000000
    6        8.015880   0.000000
    7        8.077025   0.000000
    8        8.446303   0.000000
 
  0.3750000E+00  0.3750000E+00  0.3077278E-16  0.1171875E-01
    1       -6.040999   1.000000
    2       -2.213959   1.000000
    3        1.301549   1.000000
    4        1.301549   1.000000
    5        4.436961   0.000000
    6        5.328344   0.000000
    7       10.665000   0.000000
    8       10.665000   0.000000
 
  0.5000000E+00  0.3750000E+00  0.3841657E-16  0.4687500E-01
    1       -5.616231   1.000000
    2       -2.824141   1.000000
    3        0.722611   1.000000
    4        1.227231   1.000000
    5        4.708651   0.000000
    6        5.607068   0.000000
    7       10.472585   0.000000
    8       10.884622   0.000000
 
 -0.3750000E+00  0.3750000E+00 -0.1947077E-16  0.2343750E-01
    1       -5.510750   1.000000
    2       -2.919782   1.000000
    3        0.115788   1.000000
    4        1.439345   1.000000
    5        4.927962   0.000000
    6        7.288189   0.000000
    7        9.880115   0.000000
    8       10.112343   0.000000
 
  0.5000000E+00  0.5000000E+00  0.1224244E-16  0.5859375E-02
    1       -5.449270   1.000000
    2       -3.084225   1.000000
    3        1.081920   1.000000
    4        1.081920   1.000000
    5        4.440893   0.000000
    6        4.823139   0.000000
    7       11.854404   0.000000
    8       11.854404   0.000000
 
  0.3750000E+00  0.2500000E+00  0.1250000E+00  0.4687500E-01
    1       -6.721820   1.000000
    2       -1.041624   1.000000
    3        1.308300   1.000000
    4        2.261439   1.000000
    5        5.609892   0.000000
    6        6.317573   0.000000
    7        7.960575   0.000000
    8        8.614001   0.000000
 
  0.5000000E+00  0.2500000E+00  0.1250000E+00  0.9375000E-01
    1       -6.181147   1.000000
    2       -2.113545   1.000000
    3        0.734383   1.000000
    4        1.889140   1.000000
    5        5.718053   0.000000
    6        6.892450   0.000000
    7        8.087935   0.000000
    8        9.149218   0.000000
 
 -0.3750000E+00  0.2500000E+00  0.1250000E+00  0.4687500E-01
    1       -5.869707   1.000000
    2       -2.639661   1.000000
    3        0.573063   1.000000
    4        1.720288   1.000000
    5        5.674492   0.000000
    6        6.940942   0.000000
    7        8.737592   0.000000
    8        9.751620   0.000000
 
  0.5000000E+00  0.3750000E+00  0.1250000E+00  0.4687500E-01
    1       -5.945959   1.000000
    2       -2.339068   1.000000
    3        0.769485   1.000000
    4        1.265024   1.000000
    5        5.446510   0.000000
    6        6.077036   0.000000
    7        8.644511   0.000000
    8       10.546332   0.000000
 
 -0.3750000E+00  0.3750000E+00  0.1250000E+00  0.9375000E-01
    1       -5.580002   1.000000
    2       -2.818652   1.000000
    3        0.263580   1.000000
    4        1.117776   1.000000
    5        5.792710   0.000000
    6        7.347705   0.000000
    7        8.310978   0.000000
    8        9.840432   0.000000
 
 -0.2500000E+00  0.3750000E+00  0.1250000E+00  0.4687500E-01
    1       -5.720093   1.000000
    2       -2.640885   1.000000
    3        0.146486   1.000000
    4        1.402456   1.000000
    5        6.021358   0.000000
    6        7.751980   0.000000
    7        8.059944   0.000000
    8        9.619501   0.000000
 
 -0.3750000E+00  0.5000000E+00  0.1250000E+00  0.2343750E-01
    1       -5.433526   1.000000
    2       -3.026383   1.000000
    3        0.678723   1.000000
    4        0.805059   1.000000
    5        5.402557   0.000000
    6        5.723121   0.000000
    7       10.227495   0.000000
    8       10.301332   0.000000
 
 -0.2500000E+00  0.5000000E+00  0.2500000E+00  0.1171875E-01
    1       -5.417512   1.000000
    2       -2.963544   1.000000
    3        0.353556   1.000000
    4        0.578013   1.000000
    5        6.991284   0.000000
    6        7.782082   0.000000
    7        7.786205   0.000000
    8        8.243400   0.000000
