       N       E                     dE             d eps       ncg     rms          rms(c)
DAV:   1     0.915429094068E+01    0.91543E+01   -0.20564E+03   464   0.451E+02
DAV:   2    -0.714294575048E+01   -0.16297E+02   -0.15697E+02   672   0.698E+01
DAV:   3    -0.742774986762E+01   -0.28480E+00   -0.28478E+00   584   0.117E+01
DAV:   4    -0.742903487488E+01   -0.12850E-02   -0.12850E-02   672   0.938E-01
DAV:   5    -0.742903694453E+01   -0.20696E-05   -0.20692E-05   608   0.281E-02
DAV:   6    -0.742903696054E+01   -0.16015E-07   -0.16260E-07   696   0.189E-03
DAV:   7    -0.742903696102E+01   -0.48226E-09   -0.19378E-09   592   0.929E-05
DAV:   8    -0.742903696086E+01    0.16382E-09   -0.46776E-11   552   0.114E-05    0.355E+00
DAV:   9    -0.740293900335E+01    0.26098E-01   -0.14978E-02   480   0.683E-01    0.285E+00
DAV:  10    -0.737533283523E+01    0.27606E-01   -0.11455E-01   528   0.203E+00    0.516E-01
DAV:  11    -0.737341815178E+01    0.19147E-02   -0.12818E-02   472   0.600E-01    0.183E-01
DAV:  12    -0.737351284536E+01   -0.94694E-04   -0.13703E-03   568   0.218E-01    0.559E-02
DAV:  13    -0.737345221327E+01    0.60632E-04   -0.33762E-04   520   0.798E-02    0.321E-02
DAV:  14    -0.737346397331E+01   -0.11760E-04   -0.32336E-05   560   0.341E-02    0.120E-02
DAV:  15    -0.737346789267E+01   -0.39194E-05   -0.46579E-06   600   0.146E-02    0.583E-03
DAV:  16    -0.737346770709E+01    0.18558E-06   -0.50330E-07   528   0.432E-03    0.144E-03
DAV:  17    -0.737346758526E+01    0.12184E-06   -0.43199E-08   504   0.130E-03    0.544E-04
DAV:  18    -0.737346757409E+01    0.11171E-07   -0.15002E-08   232   0.637E-04
   1 F= -.73734676E+01 E0= -.73734525E+01  d E =-.737347E+01
