PROCAR new format
# of k-points:   29         # of bands:    8         # of ions:    2

 k-point     1 :    0.00000000 0.00000000 0.00000000     weight = 0.00195312

band     1 # energy   -7.64394589 # occ.  2.00000000
 
ion      s      p      d    tot
    1  0.237  0.000  0.000  0.237
    2  0.375  0.000  0.000  0.375
tot    0.612  0.000  0.000  0.612
 
band     2 # energy    3.20096102 # occ.  2.00000000
 
ion      s      p      d    tot
    1  0.517  0.000  0.000  0.517
    2  0.333  0.000  0.000  0.333
tot    0.850  0.000  0.000  0.850
 
band     3 # energy    3.47332120 # occ.  1.33334811
 
ion      s      p      d    tot
    1  0.000  0.158  0.051  0.208
    2  0.000  0.388  0.007  0.395
tot    0.000  0.546  0.057  0.603
 
band     4 # energy    3.47332120 # occ.  1.33334754
 
ion      s      p      d    tot
    1  0.000  0.158  0.051  0.208
    2  0.000  0.388  0.007  0.395
tot    0.000  0.546  0.057  0.603
 
band     5 # energy    3.47332162 # occ.  1.33330436
 
ion      s      p      d    tot
    1  0.000  0.158  0.051  0.208
    2  0.000  0.388  0.007  0.395
tot    0.000  0.546  0.057  0.603
 
band     6 # energy    6.28236721 # occ.  0.00000000
 
ion      s      p      d    tot
    1  0.000  0.396  0.014  0.410
    2  0.000  0.057  0.053  0.111
tot    0.000  0.453  0.067  0.521
 
band     7 # energy    6.28236722 # occ.  0.00000000
 
ion      s      p      d    tot
    1  0.000  0.396  0.014  0.410
    2  0.000  0.057  0.053  0.111
tot    0.000  0.453  0.067  0.521
 
band     8 # energy    6.28236726 # occ.  0.00000000
 
ion      s      p      d    tot
    1  0.000  0.396  0.014  0.410
    2  0.000  0.057  0.053  0.111
tot    0.000  0.453  0.067  0.521
 

 k-point     2 :    0.12500000 0.00000000-0.00000000     weight = 0.01562500

band     1 # energy   -7.49797955 # occ.  2.00000000
 
ion      s      p      d    tot
    1  0.230  0.004  0.000  0.234
    2  0.379  0.001  0.000  0.380
tot    0.609  0.005  0.000  0.615
 
band     2 # energy    1.43079115 # occ.  2.00000000
 
ion      s      p      d    tot
    1  0.260  0.092  0.020  0.373
    2  0.163  0.157  0.005  0.324
tot    0.423  0.249  0.025  0.697
 
band     3 # energy    3.24266609 # occ.  2.00000000
 
ion      s      p      d    tot
    1  0.000  0.182  0.043  0.224
    2  0.000  0.363  0.007  0.370
tot    0.000  0.545  0.050  0.595
 
band     4 # energy    3.24266645 # occ.  2.00000000
 
ion      s      p      d    tot
    1  0.000  0.182  0.043  0.224
    2  0.000  0.363  0.007  0.370
tot    0.000  0.545  0.050  0.595
 
band     5 # energy    4.35283133 # occ.  0.00000000
 
ion      s      p      d    tot
    1  0.258  0.096  0.014  0.368
    2  0.136  0.156  0.006  0.299
tot    0.394  0.252  0.021  0.666
 
band     6 # energy    6.60445189 # occ.  0.00000000
 
ion      s      p      d    tot
    1  0.000  0.372  0.022  0.394
    2  0.000  0.082  0.053  0.135
tot    0.000  0.454  0.075  0.528
 
band     7 # energy    6.60445196 # occ.  0.00000000
 
ion      s      p      d    tot
    1  0.000  0.372  0.022  0.394
    2  0.000  0.082  0.053  0.135
tot    0.000  0.454  0.075  0.528
 
band     8 # energy    6.83239168 # occ.  0.00000000
 
ion      s      p      d    tot
    1  0.031  0.295  0.026  0.352
    2  0.044  0.109  0.042  0.194
tot    0.075  0.403  0.068  0.546
 

 k-point     3 :    0.25000000 0.00000000-0.00000000     weight = 0.01562500

band     1 # energy   -7.08398036 # occ.  2.00000000
 
ion      s      p      d    tot
    1  0.209  0.014  0.002  0.224
    2  0.395  0.004  0.000  0.399
tot    0.604  0.018  0.002  0.624
 
band     2 # energy   -0.46317769 # occ.  2.00000000
 
ion      s      p      d    tot
    1  0.266  0.095  0.012  0.373
    2  0.133  0.140  0.004  0.277
tot    0.399  0.235  0.016  0.651
 
band     3 # energy    2.82726199 # occ.  2.00000000
 
ion      s      p      d    tot
    1  0.000  0.213  0.031  0.244
    2  0.000  0.336  0.006  0.342
tot    0.000  0.549  0.037  0.586
 
band     4 # energy    2.82726232 # occ.  2.00000000
 
ion      s      p      d    tot
    1  0.000  0.213  0.031  0.244
    2  0.000  0.336  0.006  0.342
tot    0.000  0.549  0.037  0.586
 
band     5 # energy    4.18625954 # occ.  0.00000000
 
ion      s      p      d    tot
    1  0.257  0.097  0.011  0.366
    2  0.129  0.088  0.014  0.230
tot    0.386  0.185  0.025  0.596
 
band     6 # energy    7.10116347 # occ.  0.00000000
 
ion      s      p      d    tot
    1  0.000  0.323  0.035  0.358
    2  0.000  0.098  0.056  0.154
tot    0.000  0.421  0.091  0.512
 
band     7 # energy    7.10116355 # occ.  0.00000000
 
ion      s      p      d    tot
    1  0.000  0.323  0.035  0.358
    2  0.000  0.098  0.056  0.154
tot    0.000  0.421  0.091  0.512
 
band     8 # energy    8.47922832 # occ.  0.00000000
 
ion      s      p      d    tot
    1  0.068  0.216  0.028  0.312
    2  0.067  0.168  0.028  0.263
tot    0.135  0.384  0.056  0.575
 

 k-point     4 :    0.37500000-0.00000000-0.00000000     weight = 0.01562500

band     1 # energy   -6.51799402 # occ.  2.00000000
 
ion      s      p      d    tot
    1  0.170  0.028  0.004  0.202
    2  0.432  0.005  0.000  0.437
tot    0.603  0.033  0.005  0.640
 
band     2 # energy   -1.97598460 # occ.  2.00000000
 
ion      s      p      d    tot
    1  0.302  0.084  0.005  0.391
    2  0.092  0.129  0.002  0.223
tot    0.394  0.213  0.007  0.614
 
band     3 # energy    2.51493577 # occ.  2.00000000
 
ion      s      p      d    tot
    1  0.000  0.230  0.024  0.254
    2  0.000  0.324  0.005  0.328
tot    0.000  0.554  0.028  0.582
 
band     4 # energy    2.51493609 # occ.  2.00000000
 
ion      s      p      d    tot
    1  0.000  0.230  0.024  0.254
    2  0.000  0.324  0.005  0.328
tot    0.000  0.554  0.028  0.582
 
band     5 # energy    3.90600825 # occ.  0.00000000
 
ion      s      p      d    tot
    1  0.266  0.080  0.014  0.360
    2  0.136  0.065  0.016  0.217
tot    0.401  0.145  0.031  0.577
 
band     6 # energy    7.24885670 # occ.  0.00000000
 
ion      s      p      d    tot
    1  0.000  0.262  0.049  0.311
    2  0.000  0.086  0.061  0.147
tot    0.000  0.348  0.110  0.458
 
band     7 # energy    7.24885677 # occ.  0.00000000
 
ion      s      p      d    tot
    1  0.000  0.262  0.049  0.311
    2  0.000  0.086  0.061  0.147
tot    0.000  0.348  0.110  0.458
 
band     8 # energy   10.04429612 # occ.  0.00000000
 
ion      s      p      d    tot
    1  0.002  0.142  0.021  0.165
    2  0.003  0.106  0.016  0.126
tot    0.005  0.249  0.037  0.291
 

 k-point     5 :    0.50000000 0.00000000-0.00000000     weight = 0.00781250

band     1 # energy   -6.18957539 # occ.  2.00000000
 
ion      s      p      d    tot
    1  0.139  0.036  0.007  0.182
    2  0.469  0.002  0.001  0.472
tot    0.608  0.038  0.007  0.653
 
band     2 # energy   -2.62784086 # occ.  2.00000000
 
ion      s      p      d    tot
    1  0.333  0.077  0.001  0.411
    2  0.055  0.127  0.002  0.184
tot    0.388  0.204  0.002  0.594
 
band     3 # energy    2.40369403 # occ.  2.00000000
 
ion      s      p      d    tot
    1  0.000  0.236  0.021  0.257
    2  0.000  0.320  0.004  0.324
tot    0.000  0.556  0.025  0.582
 
band     4 # energy    2.40369434 # occ.  2.00000000
 
ion      s      p      d    tot
    1  0.000  0.236  0.021  0.257
    2  0.000  0.320  0.004  0.324
tot    0.000  0.556  0.025  0.582
 
band     5 # energy    3.80023134 # occ.  0.00000000
 
ion      s      p      d    tot
    1  0.270  0.073  0.016  0.358
    2  0.139  0.059  0.017  0.215
tot    0.409  0.132  0.033  0.574
 
band     6 # energy    7.23432802 # occ.  0.00000000
 
ion      s      p      d    tot
    1  0.000  0.239  0.054  0.293
    2  0.000  0.078  0.064  0.142
tot    0.000  0.317  0.118  0.435
 
band     7 # energy    7.23432808 # occ.  0.00000000
 
ion      s      p      d    tot
    1  0.000  0.239  0.054  0.293
    2  0.000  0.078  0.064  0.142
tot    0.000  0.317  0.118  0.435
 
band     8 # energy    9.97271015 # occ.  0.00000000
 
ion      s      p      d    tot
    1  0.009  0.067  0.020  0.095
    2  0.003  0.041  0.014  0.059
tot    0.012  0.108  0.034  0.154
 

 k-point     6 :    0.12500000 0.12500000 0.00000000     weight = 0.01171875

band     1 # energy   -7.44848445 # occ.  2.00000000
 
ion      s      p      d    tot
    1  0.228  0.005  0.001  0.233
    2  0.381  0.002  0.000  0.382
tot    0.608  0.007  0.001  0.616
 
band     2 # energy    1.34308940 # occ.  2.00000000
 
ion      s      p      d    tot
    1  0.305  0.071  0.021  0.396
    2  0.189  0.140  0.005  0.334
tot    0.495  0.210  0.025  0.730
 
band     3 # energy    2.85287389 # occ.  2.00000000
 
ion      s      p      d    tot
    1  0.000  0.202  0.034  0.236
    2  0.000  0.329  0.007  0.336
tot    0.000  0.531  0.041  0.572
 
band     4 # energy    2.85287412 # occ.  2.00000000
 
ion      s      p      d    tot
    1  0.000  0.202  0.034  0.236
    2  0.000  0.329  0.007  0.336
tot    0.000  0.531  0.041  0.572
 
band     5 # energy    5.02464808 # occ.  0.00000000
 
ion      s      p      d    tot
    1  0.241  0.005  0.035  0.281
    2  0.064  0.280  0.003  0.346
tot    0.305  0.284  0.038  0.627
 
band     6 # energy    5.92118303 # occ.  0.00000000
 
ion      s      p      d    tot
    1  0.004  0.407  0.003  0.415
    2  0.085  0.000  0.042  0.127
tot    0.089  0.408  0.046  0.542
 
band     7 # energy    7.16704074 # occ.  0.00000000
 
ion      s      p      d    tot
    1  0.000  0.351  0.031  0.383
    2  0.000  0.118  0.055  0.173
tot    0.000  0.469  0.086  0.555
 
band     8 # energy    7.16704082 # occ.  0.00000000
 
ion      s      p      d    tot
    1  0.000  0.351  0.031  0.383
    2  0.000  0.118  0.055  0.173
tot    0.000  0.469  0.086  0.555
 

 k-point     7 :    0.25000000 0.12500000 0.00000000     weight = 0.04687500

band     1 # energy   -7.11992602 # occ.  2.00000000
 
ion      s      p      d    tot
    1  0.210  0.013  0.002  0.225
    2  0.393  0.004  0.000  0.397
tot    0.603  0.018  0.002  0.622
 
band     2 # energy   -0.07662872 # occ.  2.00000000
 
ion      s      p      d    tot
    1  0.298  0.080  0.015  0.393
    2  0.159  0.135  0.004  0.298
tot    0.457  0.214  0.020  0.691
 
band     3 # energy    2.34830897 # occ.  2.00000000
 
ion      s      p      d    tot
    1  0.032  0.201  0.024  0.257
    2  0.015  0.280  0.007  0.301
tot    0.047  0.480  0.031  0.558
 
band     4 # energy    2.41077970 # occ.  2.00000000
 
ion      s      p      d    tot
    1  0.000  0.222  0.025  0.247
    2  0.000  0.308  0.006  0.313
tot    0.000  0.530  0.031  0.560
 
band     5 # energy    5.19290971 # occ.  0.00000000
 
ion      s      p      d    tot
    1  0.205  0.039  0.032  0.276
    2  0.044  0.234  0.013  0.291
tot    0.249  0.273  0.045  0.567
 
band     6 # energy    6.17946841 # occ.  0.00000000
 
ion      s      p      d    tot
    1  0.022  0.367  0.009  0.398
    2  0.080  0.029  0.038  0.147
tot    0.102  0.396  0.047  0.545
 
band     7 # energy    7.83554127 # occ.  0.00000000
 
ion      s      p      d    tot
    1  0.000  0.321  0.042  0.363
    2  0.000  0.134  0.059  0.193
tot    0.000  0.455  0.101  0.556
 
band     8 # energy    8.04034953 # occ.  0.00000000
 
ion      s      p      d    tot
    1  0.014  0.240  0.046  0.300
    2  0.016  0.127  0.053  0.196
tot    0.030  0.367  0.098  0.496
 

 k-point     8 :    0.37500000 0.12500000-0.00000000     weight = 0.04687500

band     1 # energy   -6.58589888 # occ.  2.00000000
 
ion      s      p      d    tot
    1  0.175  0.027  0.004  0.206
    2  0.424  0.006  0.000  0.430
tot    0.599  0.033  0.004  0.636
 
band     2 # energy   -1.58916708 # occ.  2.00000000
 
ion      s      p      d    tot
    1  0.319  0.077  0.008  0.403
    2  0.115  0.125  0.003  0.243
tot    0.434  0.202  0.011  0.647
 
band     3 # energy    1.79487605 # occ.  2.00000000
 
ion      s      p      d    tot
    1  0.055  0.194  0.018  0.266
    2  0.026  0.247  0.006  0.279
tot    0.081  0.441  0.024  0.545
 
band     4 # energy    2.14886249 # occ.  2.00000000
 
ion      s      p      d    tot
    1  0.000  0.235  0.019  0.254
    2  0.000  0.301  0.004  0.306
tot    0.000  0.536  0.024  0.559
 
band     5 # energy    5.00379095 # occ.  0.00000000
 
ion      s      p      d    tot
    1  0.185  0.099  0.025  0.309
    2  0.075  0.173  0.016  0.264
tot    0.260  0.272  0.041  0.574
 
band     6 # energy    6.77935407 # occ.  0.00000000
 
ion      s      p      d    tot
    1  0.021  0.278  0.030  0.329
    2  0.029  0.074  0.046  0.150
tot    0.051  0.352  0.076  0.479
 
band     7 # energy    8.00891617 # occ.  0.00000000
 
ion      s      p      d    tot
    1  0.000  0.268  0.054  0.322
    2  0.000  0.116  0.065  0.180
tot    0.000  0.384  0.118  0.502
 
band     8 # energy    8.70385561 # occ.  0.00000000
 
ion      s      p      d    tot
    1  0.016  0.148  0.060  0.224
    2  0.019  0.098  0.055  0.172
tot    0.034  0.246  0.115  0.395
 

 k-point     9 :    0.50000000 0.12500000 0.00000000     weight = 0.04687500

band     1 # energy   -6.11806499 # occ.  2.00000000
 
ion      s      p      d    tot
    1  0.131  0.039  0.007  0.177
    2  0.472  0.003  0.001  0.476
tot    0.603  0.043  0.007  0.653
 
band     2 # energy   -2.53896171 # occ.  2.00000000
 
ion      s      p      d    tot
    1  0.360  0.068  0.002  0.429
    2  0.062  0.123  0.002  0.187
tot    0.422  0.191  0.004  0.617
 
band     3 # energy    1.41900343 # occ.  2.00000000
 
ion      s      p      d    tot
    1  0.059  0.193  0.015  0.267
    2  0.028  0.236  0.005  0.269
tot    0.088  0.429  0.020  0.536
 
band     4 # energy    2.13685063 # occ.  2.00000000
 
ion      s      p      d    tot
    1  0.000  0.239  0.018  0.257
    2  0.000  0.305  0.004  0.309
tot    0.000  0.544  0.022  0.566
 
band     5 # energy    4.83158657 # occ.  0.00000000
 
ion      s      p      d    tot
    1  0.189  0.111  0.022  0.322
    2  0.088  0.145  0.017  0.251
tot    0.277  0.257  0.040  0.573
 
band     6 # energy    7.01706354 # occ.  0.00000000
 
ion      s      p      d    tot
    1  0.013  0.210  0.046  0.268
    2  0.013  0.075  0.054  0.142
tot    0.026  0.285  0.099  0.410
 
band     7 # energy    7.80679361 # occ.  0.00000000
 
ion      s      p      d    tot
    1  0.000  0.239  0.058  0.297
    2  0.000  0.096  0.066  0.163
tot    0.000  0.335  0.124  0.459
 
band     8 # energy    9.97762407 # occ.  0.00000000
 
ion      s      p      d    tot
    1  0.007  0.189  0.042  0.238
    2  0.008  0.126  0.039  0.173
tot    0.016  0.315  0.080  0.411
 

 k-point    10 :   -0.37500000 0.12500000 0.00000000     weight = 0.04687500

band     1 # energy   -6.23755566 # occ.  2.00000000
 
ion      s      p      d    tot
    1  0.144  0.036  0.006  0.186
    2  0.457  0.005  0.000  0.462
tot    0.601  0.040  0.006  0.648
 
band     2 # energy   -2.31730340 # occ.  2.00000000
 
ion      s      p      d    tot
    1  0.347  0.071  0.003  0.421
    2  0.078  0.123  0.003  0.203
tot    0.425  0.193  0.006  0.624
 
band     3 # energy    1.31237195 # occ.  2.00000000
 
ion      s      p      d    tot
    1  0.052  0.197  0.014  0.262
    2  0.024  0.236  0.005  0.265
tot    0.076  0.433  0.019  0.527
 
band     4 # energy    2.37068140 # occ.  2.00000000
 
ion      s      p      d    tot
    1  0.000  0.236  0.021  0.257
    2  0.000  0.316  0.004  0.321
tot    0.000  0.552  0.025  0.578
 
band     5 # energy    4.83444440 # occ.  0.00000000
 
ion      s      p      d    tot
    1  0.197  0.115  0.020  0.332
    2  0.094  0.139  0.017  0.250
tot    0.290  0.254  0.037  0.581
 
band     6 # energy    7.21872094 # occ.  0.00000000
 
ion      s      p      d    tot
    1  0.010  0.201  0.049  0.260
    2  0.010  0.080  0.056  0.146
tot    0.020  0.281  0.105  0.406
 
band     7 # energy    7.56119589 # occ.  0.00000000
 
ion      s      p      d    tot
    1  0.000  0.257  0.050  0.307
    2  0.000  0.093  0.062  0.154
tot    0.000  0.350  0.112  0.462
 
band     8 # energy   10.08353860 # occ.  0.00000000
 
ion      s      p      d    tot
    1  0.017  0.209  0.033  0.259
    2  0.017  0.162  0.028  0.207
tot    0.034  0.371  0.061  0.466
 

 k-point    11 :   -0.25000000 0.12500000-0.00000000     weight = 0.04687500

band     1 # energy   -6.78136234 # occ.  2.00000000
 
ion      s      p      d    tot
    1  0.190  0.022  0.003  0.214
    2  0.411  0.005  0.000  0.417
tot    0.600  0.027  0.003  0.631
 
band     2 # energy   -1.11518336 # occ.  2.00000000
 
ion      s      p      d    tot
    1  0.308  0.080  0.010  0.398
    2  0.131  0.128  0.004  0.263
tot    0.439  0.208  0.014  0.661
 
band     3 # energy    1.53407496 # occ.  2.00000000
 
ion      s      p      d    tot
    1  0.034  0.204  0.016  0.253
    2  0.014  0.247  0.005  0.266
tot    0.047  0.450  0.021  0.519
 
band     4 # energy    2.78506358 # occ.  2.00000000
 
ion      s      p      d    tot
    1  0.000  0.221  0.029  0.250
    2  0.000  0.337  0.006  0.343
tot    0.000  0.558  0.034  0.592
 
band     5 # energy    4.98092749 # occ.  0.00000000
 
ion      s      p      d    tot
    1  0.209  0.115  0.017  0.341
    2  0.095  0.153  0.014  0.261
tot    0.304  0.268  0.031  0.603
 
band     6 # energy    7.21640487 # occ.  0.00000000
 
ion      s      p      d    tot
    1  0.000  0.315  0.035  0.350
    2  0.000  0.095  0.054  0.149
tot    0.000  0.410  0.089  0.499
 
band     7 # energy    7.33653204 # occ.  0.00000000
 
ion      s      p      d    tot
    1  0.015  0.247  0.043  0.305
    2  0.021  0.094  0.054  0.169
tot    0.037  0.340  0.097  0.474
 
band     8 # energy    8.65946154 # occ.  0.00000000
 
ion      s      p      d    tot
    1  0.034  0.190  0.040  0.264
    2  0.037  0.143  0.037  0.216
tot    0.071  0.332  0.077  0.480
 

 k-point    12 :   -0.12500000 0.12500000 0.00000000     weight = 0.02343750

band     1 # energy   -7.26075822 # occ.  2.00000000
 
ion      s      p      d    tot
    1  0.218  0.010  0.001  0.229
    2  0.387  0.003  0.000  0.390
tot    0.605  0.013  0.001  0.619
 
band     2 # energy    0.36810893 # occ.  2.00000000
 
ion      s      p      d    tot
    1  0.286  0.085  0.017  0.387
    2  0.162  0.141  0.005  0.308
tot    0.448  0.225  0.021  0.695
 
band     3 # energy    2.20449918 # occ.  2.00000000
 
ion      s      p      d    tot
    1  0.013  0.208  0.023  0.244
    2  0.002  0.279  0.007  0.288
tot    0.015  0.487  0.030  0.532
 
band     4 # energy    3.19690557 # occ.  2.00000000
 
ion      s      p      d    tot
    1  0.000  0.194  0.040  0.233
    2  0.000  0.365  0.006  0.371
tot    0.000  0.559  0.046  0.605
 
band     5 # energy    4.94252418 # occ.  0.00000000
 
ion      s      p      d    tot
    1  0.237  0.099  0.016  0.351
    2  0.105  0.184  0.007  0.296
tot    0.342  0.282  0.023  0.648
 
band     6 # energy    6.70562693 # occ.  0.00000000
 
ion      s      p      d    tot
    1  0.000  0.362  0.023  0.385
    2  0.000  0.079  0.052  0.130
tot    0.000  0.441  0.074  0.515
 
band     7 # energy    6.75869272 # occ.  0.00000000
 
ion      s      p      d    tot
    1  0.017  0.288  0.031  0.336
    2  0.042  0.080  0.047  0.168
tot    0.059  0.368  0.078  0.504
 
band     8 # energy    7.91079682 # occ.  0.00000000
 
ion      s      p      d    tot
    1  0.020  0.282  0.036  0.338
    2  0.022  0.153  0.046  0.221
tot    0.042  0.435  0.082  0.559
 

 k-point    13 :    0.25000000 0.25000000 0.00000000     weight = 0.01171875

band     1 # energy   -6.88150078 # occ.  2.00000000
 
ion      s      p      d    tot
    1  0.195  0.020  0.002  0.218
    2  0.403  0.006  0.000  0.409
tot    0.598  0.026  0.002  0.627
 
band     2 # energy   -0.55348503 # occ.  2.00000000
 
ion      s      p      d    tot
    1  0.349  0.057  0.015  0.421
    2  0.169  0.120  0.005  0.294
tot    0.518  0.177  0.020  0.715
 
band     3 # energy    1.93372449 # occ.  2.00000000
 
ion      s      p      d    tot
    1  0.000  0.234  0.017  0.251
    2  0.000  0.288  0.005  0.293
tot    0.000  0.522  0.022  0.544
 
band     4 # energy    1.93372469 # occ.  2.00000000
 
ion      s      p      d    tot
    1  0.000  0.234  0.017  0.251
    2  0.000  0.288  0.005  0.293
tot    0.000  0.522  0.022  0.544
 
band     5 # energy    4.78297673 # occ.  0.00000000
 
ion      s      p      d    tot
    1  0.136  0.082  0.033  0.250
    2  0.005  0.123  0.030  0.158
tot    0.141  0.205  0.062  0.408
 
band     6 # energy    6.12032330 # occ.  0.00000000
 
ion      s      p      d    tot
    1  0.074  0.222  0.021  0.316
    2  0.098  0.088  0.022  0.209
tot    0.172  0.310  0.043  0.526
 
band     7 # energy    8.84971271 # occ.  0.00000000
 
ion      s      p      d    tot
    1  0.000  0.318  0.048  0.366
    2  0.000  0.161  0.063  0.224
tot    0.000  0.479  0.111  0.591
 
band     8 # energy    8.84971282 # occ.  0.00000000
 
ion      s      p      d    tot
    1  0.000  0.318  0.048  0.366
    2  0.000  0.161  0.063  0.224
tot    0.000  0.479  0.111  0.591
 

 k-point    14 :    0.37500000 0.25000000 0.00000000     weight = 0.04687500

band     1 # energy   -6.41594647 # occ.  2.00000000
 
ion      s      p      d    tot
    1  0.159  0.034  0.004  0.197
    2  0.433  0.007  0.000  0.440
tot    0.592  0.041  0.005  0.637
 
band     2 # energy   -1.59746819 # occ.  2.00000000
 
ion      s      p      d    tot
    1  0.384  0.049  0.010  0.443
    2  0.135  0.113  0.004  0.252
tot    0.519  0.162  0.014  0.695
 
band     3 # energy    1.29182514 # occ.  2.00000000
 
ion      s      p      d    tot
    1  0.016  0.221  0.012  0.249
    2  0.005  0.253  0.004  0.262
tot    0.022  0.473  0.016  0.511
 
band     4 # energy    1.64517540 # occ.  2.00000000
 
ion      s      p      d    tot
    1  0.000  0.242  0.013  0.254
    2  0.000  0.282  0.003  0.285
tot    0.000  0.523  0.016  0.539
 
band     5 # energy    4.97591836 # occ.  0.00000000
 
ion      s      p      d    tot
    1  0.126  0.083  0.036  0.244
    2  0.014  0.128  0.031  0.173
tot    0.139  0.211  0.067  0.417
 
band     6 # energy    6.15014492 # occ.  0.00000000
 
ion      s      p      d    tot
    1  0.062  0.190  0.029  0.282
    2  0.073  0.082  0.028  0.183
tot    0.135  0.273  0.057  0.465
 
band     7 # energy    8.78078911 # occ.  0.00000000
 
ion      s      p      d    tot
    1  0.022  0.211  0.056  0.290
    2  0.023  0.114  0.060  0.197
tot    0.045  0.325  0.116  0.487
 
band     8 # energy    9.38080845 # occ.  0.00000000
 
ion      s      p      d    tot
    1  0.000  0.285  0.057  0.342
    2  0.000  0.153  0.069  0.223
tot    0.000  0.438  0.126  0.564
 

 k-point    15 :    0.50000000 0.25000000 0.00000000     weight = 0.04687500

band     1 # energy   -5.90880468 # occ.  2.00000000
 
ion      s      p      d    tot
    1  0.101  0.050  0.007  0.158
    2  0.490  0.005  0.000  0.495
tot    0.591  0.055  0.008  0.653
 
band     2 # energy   -2.49149178 # occ.  2.00000000
 
ion      s      p      d    tot
    1  0.441  0.038  0.004  0.483
    2  0.073  0.111  0.004  0.187
tot    0.513  0.149  0.007  0.670
 
band     3 # energy    0.59039769 # occ.  2.00000000
 
ion      s      p      d    tot
    1  0.026  0.204  0.009  0.239
    2  0.011  0.226  0.003  0.240
tot    0.037  0.430  0.012  0.479
 
band     4 # energy    1.62741421 # occ.  2.00000000
 
ion      s      p      d    tot
    1  0.000  0.245  0.011  0.257
    2  0.000  0.284  0.003  0.286
tot    0.000  0.529  0.014  0.543
 
band     5 # energy    5.09297253 # occ.  0.00000000
 
ion      s      p      d    tot
    1  0.118  0.101  0.035  0.254
    2  0.040  0.102  0.031  0.173
tot    0.158  0.203  0.065  0.427
 
band     6 # energy    7.30690420 # occ.  0.00000000
 
ion      s      p      d    tot
    1  0.080  0.164  0.029  0.272
    2  0.043  0.165  0.030  0.238
tot    0.122  0.329  0.058  0.510
 
band     7 # energy    8.59303836 # occ.  0.00000000
 
ion      s      p      d    tot
    1  0.011  0.201  0.062  0.274
    2  0.027  0.069  0.060  0.155
tot    0.038  0.270  0.122  0.429
 
band     8 # energy    9.20009672 # occ.  0.00000000
 
ion      s      p      d    tot
    1  0.000  0.248  0.062  0.310
    2  0.000  0.130  0.072  0.201
tot    0.000  0.377  0.134  0.511
 

 k-point    16 :   -0.37500000 0.25000000-0.00000000     weight = 0.04687500

band     1 # energy   -5.83081889 # occ.  2.00000000
 
ion      s      p      d    tot
    1  0.090  0.051  0.008  0.150
    2  0.504  0.004  0.000  0.508
tot    0.594  0.055  0.009  0.658
 
band     2 # energy   -2.60490855 # occ.  2.00000000
 
ion      s      p      d    tot
    1  0.454  0.038  0.002  0.494
    2  0.057  0.111  0.004  0.172
tot    0.511  0.149  0.006  0.666
 
band     3 # energy    0.25084647 # occ.  2.00000000
 
ion      s      p      d    tot
    1  0.022  0.201  0.008  0.230
    2  0.009  0.219  0.002  0.231
tot    0.031  0.420  0.010  0.461
 
band     4 # energy    1.88224832 # occ.  2.00000000
 
ion      s      p      d    tot
    1  0.000  0.244  0.014  0.258
    2  0.000  0.293  0.003  0.297
tot    0.000  0.537  0.018  0.555
 
band     5 # energy    5.22571317 # occ.  0.00000000
 
ion      s      p      d    tot
    1  0.131  0.112  0.031  0.274
    2  0.054  0.102  0.028  0.184
tot    0.185  0.215  0.060  0.459
 
band     6 # energy    8.00137627 # occ.  0.00000000
 
ion      s      p      d    tot
    1  0.072  0.148  0.029  0.249
    2  0.028  0.174  0.041  0.243
tot    0.100  0.322  0.070  0.492
 
band     7 # energy    8.74171550 # occ.  0.00000000
 
ion      s      p      d    tot
    1  0.000  0.263  0.053  0.315
    2  0.000  0.126  0.064  0.190
tot    0.000  0.389  0.116  0.505
 
band     8 # energy    9.59113469 # occ.  0.00000000
 
ion      s      p      d    tot
    1  0.022  0.252  0.043  0.318
    2  0.039  0.127  0.031  0.197
tot    0.061  0.379  0.074  0.515
 

 k-point    17 :   -0.25000000 0.25000000 0.00000000     weight = 0.02343750

band     1 # energy   -6.28258918 # occ.  2.00000000
 
ion      s      p      d    tot
    1  0.148  0.036  0.005  0.189
    2  0.448  0.006  0.000  0.454
tot    0.596  0.042  0.006  0.644
 
band     2 # energy   -1.90585376 # occ.  2.00000000
 
ion      s      p      d    tot
    1  0.389  0.055  0.007  0.450
    2  0.112  0.113  0.004  0.229
tot    0.501  0.168  0.011  0.680
 
band     3 # energy    0.49509287 # occ.  2.00000000
 
ion      s      p      d    tot
    1  0.018  0.204  0.009  0.231
    2  0.005  0.225  0.003  0.233
tot    0.022  0.429  0.012  0.463
 
band     4 # energy    2.33881616 # occ.  2.00000000
 
ion      s      p      d    tot
    1  0.000  0.236  0.021  0.256
    2  0.000  0.313  0.005  0.317
tot    0.000  0.548  0.026  0.574
 
band     5 # energy    5.40426589 # occ.  0.00000000
 
ion      s      p      d    tot
    1  0.164  0.123  0.024  0.311
    2  0.068  0.130  0.022  0.220
tot    0.232  0.253  0.046  0.531
 
band     6 # energy    8.01588025 # occ.  0.00000000
 
ion      s      p      d    tot
    1  0.000  0.302  0.039  0.341
    2  0.000  0.121  0.055  0.176
tot    0.000  0.423  0.094  0.517
 
band     7 # energy    8.07702461 # occ.  0.00000000
 
ion      s      p      d    tot
    1  0.076  0.134  0.026  0.235
    2  0.005  0.165  0.062  0.232
tot    0.081  0.299  0.087  0.467
 
band     8 # energy    8.44630331 # occ.  0.00000000
 
ion      s      p      d    tot
    1  0.001  0.236  0.061  0.299
    2  0.066  0.091  0.022  0.179
tot    0.067  0.327  0.083  0.478
 

 k-point    18 :    0.37500000 0.37500000 0.00000000     weight = 0.01171875

band     1 # energy   -6.04099917 # occ.  2.00000000
 
ion      s      p      d    tot
    1  0.117  0.048  0.006  0.170
    2  0.467  0.008  0.000  0.474
tot    0.584  0.055  0.006  0.645
 
band     2 # energy   -2.21395918 # occ.  2.00000000
 
ion      s      p      d    tot
    1  0.437  0.030  0.008  0.475
    2  0.106  0.108  0.004  0.218
tot    0.543  0.138  0.012  0.693
 
band     3 # energy    1.30154930 # occ.  2.00000000
 
ion      s      p      d    tot
    1  0.000  0.247  0.008  0.255
    2  0.000  0.273  0.002  0.275
tot    0.000  0.520  0.010  0.530
 
band     4 # energy    1.30154949 # occ.  2.00000000
 
ion      s      p      d    tot
    1  0.000  0.247  0.008  0.255
    2  0.000  0.273  0.002  0.275
tot    0.000  0.520  0.010  0.530
 
band     5 # energy    4.43696120 # occ.  0.00000000
 
ion      s      p      d    tot
    1  0.136  0.059  0.036  0.231
    2  0.013  0.098  0.033  0.144
tot    0.148  0.158  0.069  0.375
 
band     6 # energy    5.32834358 # occ.  0.00000000
 
ion      s      p      d    tot
    1  0.043  0.150  0.039  0.232
    2  0.063  0.041  0.033  0.137
tot    0.106  0.192  0.072  0.370
 
band     7 # energy   10.66499958 # occ.  0.00000000
 
ion      s      p      d    tot
    1  0.000  0.314  0.052  0.366
    2  0.000  0.187  0.067  0.255
tot    0.000  0.502  0.119  0.621
 
band     8 # energy   10.66499972 # occ.  0.00000000
 
ion      s      p      d    tot
    1  0.000  0.314  0.052  0.366
    2  0.000  0.187  0.067  0.255
tot    0.000  0.502  0.119  0.621
 

 k-point    19 :    0.50000000 0.37500000 0.00000000     weight = 0.04687500

band     1 # energy   -5.61623129 # occ.  2.00000000
 
ion      s      p      d    tot
    1  0.045  0.066  0.009  0.120
    2  0.533  0.003  0.000  0.537
tot    0.578  0.069  0.009  0.657
 
band     2 # energy   -2.82414086 # occ.  2.00000000
 
ion      s      p      d    tot
    1  0.516  0.012  0.003  0.531
    2  0.040  0.108  0.004  0.152
tot    0.557  0.120  0.007  0.684
 
band     3 # energy    0.72261063 # occ.  2.00000000
 
ion      s      p      d    tot
    1  0.005  0.229  0.006  0.240
    2  0.001  0.244  0.002  0.247
tot    0.005  0.473  0.008  0.487
 
band     4 # energy    1.22723129 # occ.  2.00000000
 
ion      s      p      d    tot
    1  0.000  0.250  0.007  0.256
    2  0.000  0.272  0.002  0.273
tot    0.000  0.522  0.008  0.530
 
band     5 # energy    4.70865139 # occ.  0.00000000
 
ion      s      p      d    tot
    1  0.121  0.069  0.038  0.228