<?xml version="1.0" encoding="ISO-8859-1"?>
<modeling>
 <generator>
  <i name="program" type="string">vasp </i>
  <i name="version" type="string">5.4.4.18Apr17-6-g9f103f2a35  </i>
  <i name="subversion" type="string">(build Apr 10 2018 17:34:00) complex            parallel </i>
  <i name="platform" type="string">LinuxIFC </i>
  <i name="date" type="string">2018 10 04 </i>
  <i name="time" type="string">08:20:44 </i>
 </generator>
 <incar>
  <i type="string" name="SYSTEM"> GaSb</i>
  <i type="string" name="PREC">accurate  ! calcululation level (change</i>
  <i type="string" name="ALGO"> NORMAL    ! A Davidson blocked iteratio</i>
  <i type="logical" name="ADDGRID"> T  </i>
  <i type="int" name="ISPIN">     1</i>
  <i name="AMIX">      0.20000000</i>
  <i name="BMIX">      0.00100000</i>
  <i type="int" name="NELM">   100</i>
  <i type="int" name="NELMDL">    -8</i>
  <i type="int" name="NELMIN">     6</i>
  <i type="int" name="IBRION">     2</i>
  <i name="EDIFF">      0.00000010</i>
  <i name="EDIFFG">     -0.00100000</i>
  <i type="int" name="NSW">   100</i>
  <i type="int" name="ISIF">     3</i>
  <i name="ENCUT">    244.00000000</i>
  <i name="POTIM">      0.50000000</i>
  <i type="int" name="NEDOS">    11</i>
  <i type="logical" name="LREAL"> F  </i>
  <i type="logical" name="LPLANE"> T  </i>
  <i type="int" name="ISMEAR">     0</i>
  <i name="SIGMA">      0.01000000</i>
  <i type="int" name="NWRITE">     1</i>
  <i type="int" name="LMAXMIX">     6</i>
  <i type="logical" name="LWAVE"> F  </i>
  <i type="logical" name="LCHARG"> F  </i>
  <i type="int" name="LORBIT">    10</i>
  <i type="logical" name="LASPH"> T  </i>
  <v type="int" name="KPOINT_BSE">    -1     0     0     0</v>
  <i type="int" name="NELM">   100</i>
  <i type="logical" name="LASPH"> T  </i>
 </incar>
 <structure name="primitive_cell" >
  <crystal>
   <varray name="basis" >
    <v>       0.00000000       3.11158425       3.11158425 </v>
    <v>       3.11158425       0.00000000       3.11158425 </v>
    <v>       3.11158425       3.11158425       0.00000000 </v>
   </varray>
   <i name="volume">     60.25244687 </i>
   <varray name="rec_basis" >
    <v>      -0.16068985       0.16068985       0.16068985 </v>
    <v>       0.16068985      -0.16068985       0.16068985 </v>
    <v>       0.16068985       0.16068985      -0.16068985 </v>
   </varray>
  </crystal>
  <varray name="positions" >
   <v>       0.00000000       0.00000000       0.00000000 </v>
   <v>       0.25000000       0.25000000       0.25000000 </v>
  </varray>
 </structure>
 <varray name="primitive_index" >
  <v type="int" >        1 </v>
  <v type="int" >        2 </v>
 </varray>
 <kpoints>
  <generation param="Auto">
   <i name="subdivisionlength">     30.00000000 </i>
   <v type="int" name="divisions">       8        8        8 </v>
   <v name="usershift">      0.00000000       0.00000000       0.00000000 </v>
   <v name="genvec1">      0.12500000       0.00000000      -0.00000000 </v>
   <v name="genvec2">      0.00000000       0.12500000       0.00000000 </v>
   <v name="genvec3">     -0.00000000      -0.00000000       0.12500000 </v>
   <v name="shift">      0.00000000       0.00000000       0.00000000 </v>
  </generation>
  <varray name="kpointlist" >
   <v>       0.00000000       0.00000000       0.00000000 </v>
   <v>       0.12500000       0.00000000      -0.00000000 </v>
   <v>       0.25000000       0.00000000      -0.00000000 </v>
   <v>       0.37500000      -0.00000000      -0.00000000 </v>
   <v>       0.50000000       0.00000000      -0.00000000 </v>
   <v>       0.12500000       0.12500000       0.00000000 </v>
   <v>       0.25000000       0.12500000       0.00000000 </v>
   <v>       0.37500000       0.12500000      -0.00000000 </v>
   <v>       0.50000000       0.12500000       0.00000000 </v>
   <v>      -0.37500000       0.12500000       0.00000000 </v>
   <v>      -0.25000000       0.12500000      -0.00000000 </v>
   <v>      -0.12500000       0.12500000       0.00000000 </v>
   <v>       0.25000000       0.25000000       0.00000000 </v>
   <v>       0.37500000       0.25000000       0.00000000 </v>
   <v>       0.50000000       0.25000000       0.00000000 </v>
   <v>      -0.37500000       0.25000000      -0.00000000 </v>
   <v>      -0.25000000       0.25000000       0.00000000 </v>
   <v>       0.37500000       0.37500000       0.00000000 </v>
   <v>       0.50000000       0.37500000       0.00000000 </v>
   <v>      -0.37500000       0.37500000      -0.00000000 </v>
   <v>       0.50000000       0.50000000       0.00000000 </v>
   <v>       0.37500000       0.25000000       0.12500000 </v>
   <v>       0.50000000       0.25000000       0.12500000 </v>
   <v>      -0.37500000       0.25000000       0.12500000 </v>
   <v>       0.50000000       0.37500000       0.12500000 </v>
   <v>      -0.37500000       0.37500000       0.12500000 </v>
   <v>      -0.25000000       0.37500000       0.12500000 </v>
   <v>      -0.37500000       0.50000000       0.12500000 </v>
   <v>      -0.25000000       0.50000000       0.25000000 </v>
  </varray>
  <varray name="weights" >
   <v>       0.00195312 </v>
   <v>       0.01562500 </v>
   <v>       0.01562500 </v>
   <v>       0.01562500 </v>
   <v>       0.00781250 </v>
   <v>       0.01171875 </v>
   <v>       0.04687500 </v>
   <v>       0.04687500 </v>
   <v>       0.04687500 </v>
   <v>       0.04687500 </v>
   <v>       0.04687500 </v>
   <v>       0.02343750 </v>
   <v>       0.01171875 </v>
   <v>       0.04687500 </v>
   <v>       0.04687500 </v>
   <v>       0.04687500 </v>
   <v>       0.02343750 </v>
   <v>       0.01171875 </v>
   <v>       0.04687500 </v>
   <v>       0.02343750 </v>
   <v>       0.00585938 </v>
   <v>       0.04687500 </v>
   <v>       0.09375000 </v>
   <v>       0.04687500 </v>
   <v>       0.04687500 </v>
   <v>       0.09375000 </v>
   <v>       0.04687500 </v>
   <v>       0.02343750 </v>
   <v>       0.01171875 </v>
  </varray>
 </kpoints>
 <parameters>
  <separator name="general" >
   <i type="string" name="SYSTEM">GaSb</i>
   <i type="logical" name="LCOMPAT"> F  </i>
  </separator>
  <separator name="electronic" >
   <i type="string" name="PREC">accura</i>
   <i name="ENMAX">    244.00000000</i>
   <i name="ENAUG">    380.51300000</i>
   <i name="EDIFF">      0.00000010</i>
   <i type="int" name="IALGO">    38</i>
   <i type="int" name="IWAVPR">    11</i>
   <i type="int" name="NBANDS">     8</i>
   <i name="NELECT">      8.00000000</i>
   <i type="int" name="TURBO">     0</i>
   <i type="int" name="IRESTART">     0</i>
   <i type="int" name="NREBOOT">     0</i>
   <i type="int" name="NMIN">     0</i>
   <i name="EREF">      0.00000000</i>
   <separator name="electronic smearing" >
    <i type="int" name="ISMEAR">     0</i>
    <i name="SIGMA">      0.01000000</i>
    <i name="KSPACING">      0.50000000</i>
    <i type="logical" name="KGAMMA"> T  </i>
   </separator>
   <separator name="electronic projectors" >
    <i type="logical" name="LREAL"> F  </i>
    <v name="ROPT">      0.00000000      0.00000000</v>
    <i type="int" name="LMAXPAW">  -100</i>
    <i type="int" name="LMAXMIX">     6</i>
    <i type="logical" name="NLSPLINE"> F  </i>
   </separator>
   <separator name="electronic startup" >
    <i type="int" name="ISTART">     0</i>
    <i type="int" name="ICHARG">     2</i>
    <i type="int" name="INIWAV">     1</i>
   </separator>
   <separator name="electronic spin" >
    <i type="int" name="ISPIN">     1</i>
    <i type="logical" name="LNONCOLLINEAR"> F  </i>
    <v name="MAGMOM">      1.00000000      1.00000000</v>
    <i name="NUPDOWN">     -1.00000000</i>
    <i type="logical" name="LSORBIT"> F  </i>
    <v name="SAXIS">      0.00000000      0.00000000      1.00000000</v>
    <i type="logical" name="LSPIRAL"> F  </i>
    <v name="QSPIRAL">      0.00000000      0.00000000      0.00000000</v>
    <i type="logical" name="LZEROZ"> F  </i>
   </separator>
   <separator name="electronic exchange-correlation" >
    <i type="logical" name="LASPH"> T  </i>
    <i type="logical" name="LMETAGGA"> F  </i>
   </separator>
   <separator name="electronic convergence" >
    <i type="int" name="NELM">   100</i>
    <i type="int" name="NELMDL">    -8</i>
    <i type="int" name="NELMIN">     6</i>
    <i name="ENINI">    244.00000000</i>
    <separator name="electronic convergence detail" >
     <i type="logical" name="LDIAG"> T  </i>
     <i type="logical" name="LSUBROT"> F  </i>
     <i name="WEIMIN">      0.00100000</i>
     <i name="EBREAK">      0.00000000</i>
     <i name="DEPER">      0.30000000</i>
     <i type="int" name="NRMM">     4</i>
     <i name="TIME">      0.40000000</i>
    </separator>
   </separator>
   <separator name="electronic mixer" >
    <i name="AMIX">      0.20000000</i>
    <i name="BMIX">      0.00100000</i>
    <i name="AMIN">      0.10000000</i>
    <i name="AMIX_MAG">      0.80000000</i>
    <i name="BMIX_MAG">      0.00100000</i>
    <separator name="electronic mixer details" >
     <i type="int" name="IMIX">     4</i>
     <i type="logical" name="MIXFIRST"> F  </i>
     <i type="int" name="MAXMIX">   -45</i>
     <i name="WC">    100.00000000</i>
     <i type="int" name="INIMIX">     1</i>
     <i type="int" name="MIXPRE">     1</i>
     <i type="int" name="MREMOVE">     5</i>
    </separator>
   </separator>
   <separator name="electronic dipolcorrection" >
    <i type="logical" name="LDIPOL"> F  </i>
    <i type="logical" name="LMONO"> F  </i>
    <i type="int" name="IDIPOL">     0</i>
    <i name="EPSILON">      1.00000000</i>
    <v name="DIPOL">   -100.00000000   -100.00000000   -100.00000000</v>
    <i name="EFIELD">      0.00000000</i>
   </separator>
  </separator>
  <separator name="grids" >
   <i type="int" name="NGX">    24</i>
   <i type="int" name="NGY">    24</i>
   <i type="int" name="NGZ">    24</i>
   <i type="int" name="NGXF">    48</i>
   <i type="int" name="NGYF">    48</i>
   <i type="int" name="NGZF">    48</i>
   <i type="logical" name="ADDGRID"> T  </i>
  </separator>
  <separator name="ionic" >
   <i type="int" name="NSW">   100</i>
   <i type="int" name="IBRION">     2</i>
   <i type="int" name="MDALGO">     0</i>
   <i type="int" name="ISIF">     3</i>
   <i name="PSTRESS">      0.00000000</i>
   <i name="EDIFFG">     -0.00100000</i>
   <i type="int" name="NFREE">     1</i>
   <i name="POTIM">      0.50000000</i>
   <i name="SMASS">     -3.00000000</i>
   <i name="SCALEE">      1.00000000</i>
  </separator>
  <separator name="ionic md" >
   <i name="TEBEG">      0.00010000</i>
   <i name="TEEND">      0.00010000</i>
   <i type="int" name="NBLOCK">     1</i>
   <i type="int" name="KBLOCK">   100</i>
   <i type="int" name="NPACO">   256</i>
   <i name="APACO">     16.00000000</i>
  </separator>
  <separator name="symmetry" >
   <i type="int" name="ISYM">     2</i>
   <i name="SYMPREC">      0.00001000</i>
  </separator>
  <separator name="dos" >
   <i type="int" name="LORBIT">    10</i>
   <v name="RWIGS">     -1.00000000     -1.00000000</v>
   <i type="int" name="NEDOS">    11</i>
   <i name="EMIN">     10.00000000</i>
   <i name="EMAX">    -10.00000000</i>
   <i name="EFERMI">      0.00000000</i>
  </separator>
  <separator name="writing" >
   <i type="int" name="NWRITE">     1</i>
   <i type="logical" name="LWAVE"> F  </i>
   <i type="logical" name="LDOWNSAMPLE"> F  </i>
   <i type="logical" name="LCHARG"> F  </i>
   <i type="logical" name="LPARD"> F  </i>
   <i type="logical" name="LVTOT"> F  </i>
   <i type="logical" name="LVHAR"> F  </i>
   <i type="logical" name="LELF"> F  </i>
   <i type="logical" name="LOPTICS"> F  </i>
   <v name="STM">      0.00000000      0.00000000      0.00000000      0.00000000      0.00000000      0.00000000      0.00000000</v>
  </separator>
  <separator name="performance" >
   <i type="int" name="NPAR">     2</i>
   <i type="int" name="NSIM">     4</i>
   <i type="int" name="NBLK">    -1</i>
   <i type="logical" name="LPLANE"> T  </i>
   <i type="logical" name="LSCALAPACK"> T  </i>
   <i type="logical" name="LSCAAWARE"> F  </i>
   <i type="logical" name="LSCALU"> F  </i>
   <i type="logical" name="LASYNC"> F  </i>
   <i type="logical" name="LORBITALREAL"> F  </i>
  </separator>
  <separator name="miscellaneous" >
   <i type="int" name="IDIOT">     3</i>
   <i type="int" name="ISPECIAL">     0</i>
   <i type="logical" name="LMUSIC"> F  </i>
   <v name="POMASS">     69.72300000    121.75000000</v>
   <v name="DARWINR">      0.00000000      0.00000000</v>
   <v name="DARWINV">      1.00000000      1.00000000</v>
   <i type="logical" name="LCORR"> T  </i>
  </separator>
  <i type="logical" name="GGA_COMPAT"> T  </i>
  <i type="logical" name="LBERRY"> F  </i>
  <i type="int" name="ICORELEVEL">     0</i>
  <i type="logical" name="LDAU"> F  </i>
  <i type="int" name="I_CONSTRAINED_M">     0</i>
  <separator name="electronic exchange-correlation" >
   <i type="string" name="GGA">--</i>
   <i type="int" name="VOSKOWN">     0</i>
   <i type="logical" name="LHFCALC"> F  </i>
   <i type="string" name="PRECFOCK"></i>
   <i type="logical" name="LSYMGRAD"> F  </i>
   <i type="logical" name="LHFONE"> F  </i>
   <i type="logical" name="LRHFCALC"> F  </i>
   <i type="logical" name="LTHOMAS"> F  </i>
   <i type="logical" name="LMODELHF"> F  </i>
   <i name="ENCUT4O">     -1.00000000</i>
   <i type="int" name="EXXOEP">     0</i>
   <i type="int" name="FOURORBIT">     0</i>
   <i name="AEXX">      0.00000000</i>
   <i name="HFALPHA">      0.00000000</i>
   <i name="MCALPHA">      0.00000000</i>
   <i name="ALDAX">      1.00000000</i>
   <i name="AGGAX">      1.00000000</i>
   <i name="ALDAC">      1.00000000</i>
   <i name="AGGAC">      1.00000000</i>
   <i type="int" name="NKREDX">     1</i>
   <i type="int" name="NKREDY">     1</i>
   <i type="int" name="NKREDZ">     1</i>
   <i type="logical" name="SHIFTRED"> F  </i>
   <i type="logical" name="ODDONLY"> F  </i>
   <i type="logical" name="EVENONLY"> F  </i>
   <i type="int" name="LMAXFOCK">     0</i>
   <i type="int" name="NMAXFOCKAE">     0</i>
   <i type="logical" name="LFOCKAEDFT"> F  </i>
   <i name="HFSCREEN">      0.00000000</i>
   <i name="HFSCREENC">      0.00000000</i>
   <i type="int" name="NBANDSGWLOW">     0</i>
  </separator>
  <separator name="vdW DFT" >
   <i type="logical" name="LUSE_VDW"> F  </i>
   <i name="Zab_VDW">     -0.84910000</i>
   <i name="PARAM1">      0.12340000</i>
   <i name="PARAM2">      1.00000000</i>
   <i name="PARAM3">      0.00000000</i>
  </separator>
  <separator name="model GW" >
   <i type="int" name="MODEL_GW">     0</i>
   <i name="MODEL_EPS0">     18.07573406</i>
   <i name="MODEL_ALPHA">      1.00000000</i>
  </separator>
  <separator name="linear response parameters" >
   <i type="logical" name="LEPSILON"> F  </i>
   <i type="logical" name="LRPA"> F  </i>
   <i type="logical" name="LNABLA"> F  </i>
   <i type="logical" name="LVEL"> F  </i>
   <i type="int" name="KINTER">     0</i>
   <i name="CSHIFT">      0.10000000</i>
   <i name="OMEGAMAX">     -1.00000000</i>
   <i name="DEG_THRESHOLD">      0.00200000</i>
   <i name="RTIME">     -0.10000000</i>
   <i name="WPLASMAI">      0.00000000</i>
   <v name="DFIELD">      0.00000000      0.00000000      0.00000000</v>
   <v name="WPLASMA">      0.00000000      0.00000000      0.00000000      0.00000000      0.00000000      0.00000000      0.00000000      0.00000000      0.00000000</v>
  </separator>
  <separator name="orbital magnetization" >
   <i type="logical" name="NUCIND"> F  </i>
   <v name="MAGPOS">      0.00000000      0.00000000      0.00000000</v>
   <i type="logical" name="LNICSALL"> T  </i>
   <i type="logical" name="ORBITALMAG"> F  </i>
   <i type="logical" name="LMAGBLOCH"> F  </i>
   <i type="logical" name="LCHIMAG"> F  </i>
   <i type="logical" name="LGAUGE"> T  </i>
   <i type="int" name="MAGATOM">     0</i>
   <v name="MAGDIPOL">      0.00000000      0.00000000      0.00000000</v>
   <v name="AVECCONST">      0.00000000      0.00000000      0.00000000</v>
  </separator>
  <separator name="response functions" >
   <i type="logical" name="LADDER"> F  </i>
   <i type="logical" name="LRPAFORCE"> F  </i>
   <i type="logical" name="LFXC"> F  </i>
   <i type="logical" name="LHARTREE"> T  </i>
   <i type="int" name="IBSE">     0</i>
   <v type="int" name="KPOINT">    -1     0     0     0</v>
   <i type="logical" name="LTCTE"> F  </i>
   <i type="logical" name="LTETE"> F  </i>
   <i type="logical" name="LTRIPLET"> F  </i>
   <i type="logical" name="LFXCEPS"> F  </i>
   <i type="logical" name="LFXHEG"> F  </i>
   <i type="int" name="NATURALO">     2</i>
   <i type="logical" name="L2ORDER"> F  </i>
   <i type="logical" name="LMP2LT"> F  </i>
   <i type="logical" name="LUSEW"> F  </i>
   <i name="ENCUTGW">     -2.00000000</i>
   <i name="ENCUTGWSOFT">     -2.00000000</i>
   <i name="ENCUTLF">     -1.00000000</i>
   <i type="int" name="LMAXMP2">    -1</i>
   <i name="SCISSOR">      0.00000000</i>
   <i type="int" name="NOMEGA">     0</i>
   <i type="int" name="NOMEGAR">     0</i>
   <i type="int" name="NBANDSGW">    -1</i>
   <i type="int" name="NBANDSO">    -1</i>
   <i type="int" name="NBANDSV">    -1</i>
   <i type="int" name="NELM">   100</i>
   <i type="int" name="NELMHF">     1</i>
   <i type="int" name="DIM">     3</i>
   <i type="int" name="ANTIRES">     0</i>
   <i name="OMEGAMAX">    -30.00000000</i>
   <i name="OMEGAMIN">    -30.00000000</i>
   <i name="OMEGATL">   -200.00000000</i>
   <i type="int" name="OMEGAGRID">   140</i>
   <i name="CSHIFT">     -0.10000000</i>
   <i type="logical" name="SELFENERGY"> F  </i>
   <i type="logical" name="LSPECTRAL"> F  </i>
   <i type="logical" name="LSPECTRALGW"> F  </i>
   <i type="logical" name="LSINGLES"> F  </i>
   <i type="logical" name="LFERMIGW"> F  </i>
   <i type="logical" name="ODDONLYGW"> F  </i>
   <i type="logical" name="EVENONLYGW"> F  </i>
   <i type="int" name="NKREDLFX">     1</i>
   <i type="int" name="NKREDLFY">     1</i>
   <i type="int" name="NKREDLFZ">     1</i>
   <i type="int" name="MAXMEM">  2800</i>
   <i type="int" name="TELESCOPE">     0</i>
   <i type="int" name="TAUPAR">     1</i>
   <i type="int" name="OMEGAPAR">    -1</i>
   <i name="LAMBDA">      1.00000000</i>
  </separator>
  <separator name="External order field" >
   <i name="OFIELD_KAPPA">      0.00000000</i>
   <v name="OFIELD_K">      0.00000000      0.00000000      0.00000000</v>
   <i name="OFIELD_Q6_NEAR">      0.00000000</i>
   <i name="OFIELD_Q6_FAR">      0.00000000</i>
   <i name="OFIELD_A">      0.00000000</i>
  </separator>
 </parameters>
 <atominfo>
  <atoms>       2 </atoms>
  <types>       2 </types>
  <array name="atoms" >
   <dimension dim="1">ion</dimension>
   <field type="string">element</field>
   <field type="int">atomtype</field>
   <set>
    <rc><c>Ga</c><c>   1</c></rc>
    <rc><c>Sb</c><c>   2</c></rc>
   </set>
  </array>
  <array name="atomtypes" >
   <dimension dim="1">type</dimension>
   <field type="int">atomspertype</field>
   <field type="string">element</field>
   <field>mass</field>
   <field>valence</field>
   <field type="string">pseudopotential</field>
   <set>
    <rc><c>   1</c><c>Ga</c><c>     69.72300000</c><c>      3.00000000</c><c>  PAW_PBE Ga 08Apr2002                  </c></rc>
    <rc><c>   1</c><c>Sb</c><c>    121.75000000</c><c>      5.00000000</c><c>  PAW_PBE Sb 06Sep2000                  </c></rc>
   </set>
  </array>
 </atominfo>
 <structure name="initialpos" >
  <crystal>
   <varray name="basis" >
    <v>       0.00000000       3.11158425       3.11158425 </v>
    <v>       3.11158425       0.00000000       3.11158425 </v>
    <v>       3.11158425       3.11158425       0.00000000 </v>
   </varray>
   <i name="volume">     60.25244687 </i>
   <varray name="rec_basis" >
    <v>      -0.16068985       0.16068985       0.16068985 </v>
    <v>       0.16068985      -0.16068985       0.16068985 </v>
    <v>       0.16068985       0.16068985      -0.16068985 </v>
   </varray>
  </crystal>
  <varray name="positions" >
   <v>       0.00000000       0.00000000       0.00000000 </v>
   <v>       0.25000000       0.25000000       0.25000000 </v>
  </varray>
 </structure>
 <calculation>
  <scstep>
   <time name="dav">    0.03    0.03</time>
   <time name="total">    0.14    0.14</time>
   <energy>
    <i name="alphaZ">      6.31213628 </i>
    <i name="ewald">   -208.18547193 </i>
    <i name="hartreedc">    -14.06549262 </i>
    <i name="XCdc">    -65.53735622 </i>
    <i name="pawpsdc">    225.74522980 </i>
    <i name="pawaedc">   -148.09406000 </i>
    <i name="eentropy">     -0.00021136 </i>
    <i name="bandstr">      4.16203820 </i>
    <i name="atom">    208.81747878 </i>
    <i name="e_fr_energy">      9.15429094 </i>
    <i name="e_wo_entrp">      9.15450230 </i>
    <i name="e_0_energy">      9.15439662 </i>
   </energy>
  </scstep>
  <scstep>
   <time name="dav">    0.04    0.04</time>
   <time name="total">    0.04    0.04</time>
   <energy>
    <i name="e_fr_energy">     -7.14294575 </i>
    <i name="e_wo_entrp">     -7.14294519 </i>
    <i name="e_0_energy">     -7.14294547 </i>
   </energy>
  </scstep>
  <scstep>
   <time name="dav">    0.04    0.04</time>
   <time name="total">    0.04    0.04</time>
   <energy>
    <i name="e_fr_energy">     -7.42774987 </i>
    <i name="e_wo_entrp">     -7.42771975 </i>
    <i name="e_0_energy">     -7.42773481 </i>
   </energy>
  </scstep>
  <scstep>
   <time name="dav">    0.04    0.04</time>
   <time name="total">    0.04    0.04</time>
   <energy>
    <i name="e_fr_energy">     -7.42903487 </i>
    <i name="e_wo_entrp">     -7.42900475 </i>
    <i name="e_0_energy">     -7.42901981 </i>
   </energy>
  </scstep>
  <scstep>
   <time name="dav">    0.04    0.04</time>
   <time name="total">    0.04    0.04</time>
   <energy>
    <i name="e_fr_energy">     -7.42903694 </i>
    <i name="e_wo_entrp">     -7.42900682 </i>
    <i name="e_0_energy">     -7.42902188 </i>
   </energy>
  </scstep>
  <scstep>
   <time name="dav">    0.04    0.04</time>
   <time name="total">    0.04    0.04</time>
   <energy>
    <i name="e_fr_energy">     -7.42903696 </i>
    <i name="e_wo_entrp">     -7.42900683 </i>
    <i name="e_0_energy">     -7.42902190 </i>
   </energy>
  </scstep>
  <scstep>
   <time name="dav">    0.04    0.04</time>
   <time name="total">    0.04    0.04</time>
   <energy>
    <i name="e_fr_energy">     -7.42903696 </i>
    <i name="e_wo_entrp">     -7.42900683 </i>
    <i name="e_0_energy">     -7.42902190 </i>
   </energy>
  </scstep>
  <scstep>
   <time name="dav">    0.03    0.03</time>
   <time name="total">    0.05    0.05</time>
   <energy>
    <i name="e_fr_energy">     -7.42903696 </i>
    <i name="e_wo_entrp">     -7.42900683 </i>
    <i name="e_0_energy">     -7.42902190 </i>
   </energy>
  </scstep>
  <scstep>
   <time name="dav">    0.03    0.03</time>
   <time name="total">    0.15    0.15</time>
   <energy>
    <i name="e_fr_energy">     -7.40293900 </i>
    <i name="e_wo_entrp">     -7.40290887 </i>
    <i name="e_0_energy">     -7.40292394 </i>
   </energy>
  </scstep>
  <scstep>
   <time name="dav">    0.03    0.03</time>
   <time name="total">    0.15    0.15</time>
   <energy>
    <i name="e_fr_energy">     -7.37533284 </i>
    <i name="e_wo_entrp">     -7.37530271 </i>
    <i name="e_0_energy">     -7.37531777 </i>
   </energy>
  </scstep>
  <scstep>
   <time name="dav">    0.03    0.03</time>
   <time name="total">    0.15    0.15</time>
   <energy>
    <i name="e_fr_energy">     -7.37341815 </i>
    <i name="e_wo_entrp">     -7.37338802 </i>
    <i name="e_0_energy">     -7.37340309 </i>
   </energy>
  </scstep>
  <scstep>
   <time name="dav">    0.03    0.03</time>
   <time name="total">    0.15    0.15</time>
   <energy>
    <i name="e_fr_energy">     -7.37351285 </i>
    <i name="e_wo_entrp">     -7.37348272 </i>
    <i name="e_0_energy">     -7.37349778 </i>
   </energy>
  </scstep>
  <scstep>
   <time name="dav">    0.03    0.03</time>
   <time name="total">    0.15    0.15</time>
   <energy>
    <i name="e_fr_energy">     -7.37345221 </i>
    <i name="e_wo_entrp">     -7.37342208 </i>
    <i name="e_0_energy">     -7.37343715 </i>
   </energy>
  </scstep>
  <scstep>
   <time name="dav">    0.03    0.03</time>
   <time name="total">    0.15    0.15</time>
   <energy>
    <i name="e_fr_energy">     -7.37346397 </i>
    <i name="e_wo_entrp">     -7.37343384 </i>
    <i name="e_0_energy">     -7.37344891 </i>
   </energy>
  </scstep>
  <scstep>
   <time name="dav">    0.04    0.04</time>
   <time name="total">    0.15    0.15</time>
   <energy>
    <i name="e_fr_energy">     -7.37346789 </i>
    <i name="e_wo_entrp">     -7.37343776 </i>
    <i name="e_0_energy">     -7.37345283 </i>
   </energy>
  </scstep>
  <scstep>
   <time name="dav">    0.03    0.03</time>
   <time name="total">    0.15    0.15</time>
   <energy>
    <i name="e_fr_energy">     -7.37346771 </i>
    <i name="e_wo_entrp">     -7.37343758 </i>
    <i name="e_0_energy">     -7.37345264 </i>
   </energy>
  </scstep>
  <scstep>
   <time name="dav">    0.03    0.03</time>
   <time name="total">    0.15    0.15</time>
   <energy>
    <i name="e_fr_energy">     -7.37346759 </i>
    <i name="e_wo_entrp">     -7.37343746 </i>
    <i name="e_0_energy">     -7.37345252 </i>
   </energy>
  </scstep>
  <scstep>
   <time name="dav">    0.02    0.02</time>
   <time name="total">    0.12    0.12</time>
   <energy>
    <i name="alphaZ">      6.31213628 </i>
    <i name="ewald">   -208.18547193 </i>
    <i name="hartreedc">    -16.32933155 </i>
    <i name="XCdc">    -64.96803532 </i>
    <i name="pawpsdc">    556.90200651 </i>
    <i name="pawaedc">   -479.54009568 </i>
    <i name="eentropy">     -0.00003013 </i>
    <i name="bandstr">    -10.38212455 </i>
    <i name="atom">    208.81747878 </i>
    <i name="e_fr_energy">     -7.37346757 </i>
    <i name="e_wo_entrp">     -7.37343744 </i>
    <i name="e_0_energy">     -7.37345251 </i>
   </energy>
  </scstep>
  <structure>
   <crystal>
    <varray name="basis" >
     <v>       0.00000000       3.11158425       3.11158425 </v>
     <v>       3.11158425       0.00000000       3.11158425 </v>
     <v>       3.11158425       3.11158425       0.00000000 </v>
    </varray>
    <i name="volume">     60.25244687 </i>
    <varray name="rec_basis" >
     <v>      -0.16068985       0.16068985       0.16068985 </v>
     <v>       0.16068985      -0.16068985       0.16068985 </v>
     <v>       0.16068985       0.16068985      -0.16068985 </v>
    </varray>
   </crystal>
   <varray name="positions" >
    <v>       0.00000000       0.00000000       0.00000000 </v>
    <v>       0.25000000       0.25000000       0.25000000 </v>
   </varray>
  </structure>
  <varray name="forces" >
   <v>       0.00000000       0.00000000       0.00000000 </v>
   <v>      -0.00000000      -0.00000000      -0.00000000 </v>
  </varray>
  <varray name="stress" >
   <v>       0.05104881       0.00000000      -0.00000000 </v>
   <v>       0.00000000       0.05104881      -0.00000000 </v>
   <v>       0.00000000       0.00000000       0.05104881 </v>
  </varray>
  <energy>
   <i name="e_fr_energy">     -7.37346757 </i>
   <i name="e_wo_entrp">     -7.37345251 </i>
   <i name="e_0_energy">     -0.00003013 </i>
  </energy>
  <time name="totalsc">    2.31    2.31</time>
  <eigenvalues>
   <array>
    <dimension dim="1">band</dimension>
    <dimension dim="2">kpoint</dimension>
    <dimension dim="3">spin</dimension>
    <field>eigene</field>
    <field>occ</field>
    <set>
     <set comment="spin 1">
      <set comment="kpoint 1">
       <r>   -7.6439    1.0000 </r>
       <r>    3.2010    1.0000 </r>
       <r>    3.4733    0.6667 </r>
       <r>    3.4733    0.6667 </r>
       <r>    3.4733    0.6667 </r>
       <r>    6.2824    0.0000 </r>
       <r>    6.2824    0.0000 </r>
       <r>    6.2824    0.0000 </r>
      </set>
      <set comment="kpoint 2">
       <r>   -7.4980    1.0000 </r>
       <r>    1.4308    1.0000 </r>
       <r>    3.2427    1.0000 </r>
       <r>    3.2427    1.0000 </r>
       <r>    4.3528    0.0000 </r>
       <r>    6.6045    0.0000 </r>
       <r>    6.6045    0.0000 </r>
       <r>    6.8324    0.0000 </r>
      </set>
      <set comment="kpoint 3">
       <r>   -7.0840    1.0000 </r>
       <r>   -0.4632    1.0000 </r>
       <r>    2.8273    1.0000 </r>
       <r>    2.8273    1.0000 </r>
       <r>    4.1863    0.0000 </r>
       <r>    7.1012    0.0000 </r>
       <r>    7.1012    0.0000 </r>
       <r>    8.4792    0.0000 </r>
      </set>
      <set comment="kpoint 4">
       <r>   -6.5180    1.0000 </r>
       <r>   -1.9760    1.0000 </r>
       <r>    2.5149    1.0000 </r>
       <r>    2.5149    1.0000 </r>
       <r>    3.9060    0.0000 </r>
       <r>    7.2489    0.0000 </r>
       <r>    7.2489    0.0000 </r>
       <r>   10.0443    0.0000 </r>
      </set>
      <set comment="kpoint 5">
       <r>   -6.1896    1.0000 </r>
       <r>   -2.6278    1.0000 </r>
       <r>    2.4037    1.0000 </r>
       <r>    2.4037    1.0000 </r>
       <r>    3.8002    0.0000 </r>
       <r>    7.2343    0.0000 </r>
       <r>    7.2343    0.0000 </r>
       <r>    9.9727    0.0000 </r>
      </set>
      <set comment="kpoint 6">
       <r>   -7.4485    1.0000 </r>
       <r>    1.3431    1.0000 </r>
       <r>    2.8529    1.0000 </r>
       <r>    2.8529    1.0000 </r>
       <r>    5.0246    0.0000 </r>
       <r>    5.9212    0.0000 </r>
       <r>    7.1670    0.0000 </r>
       <r>    7.1670    0.0000 </r>
      </set>
      <set comment="kpoint 7">
       <r>   -7.1199    1.0000 </r>
       <r>   -0.0766    1.0000 </r>
       <r>    2.3483    1.0000 </r>
       <r>    2.4108    1.0000 </r>
       <r>    5.1929    0.0000 </r>
       <r>    6.1795    0.0000 </r>
       <r>    7.8355    0.0000 </r>
       <r>    8.0403    0.0000 </r>
      </set>
      <set comment="kpoint 8">
       <r>   -6.5859    1.0000 </r>
       <r>   -1.5892    1.0000 </r>
       <r>    1.7949    1.0000 </r>
       <r>    2.1489    1.0000 </r>
       <r>    5.0038    0.0000 </r>
       <r>    6.7794    0.0000 </r>
       <r>    8.0089    0.0000 </r>
       <r>    8.7039    0.0000 </r>
      </set>
      <set comment="kpoint 9">
       <r>   -6.1181    1.0000 </r>
       <r>   -2.5390    1.0000 </r>
       <r>    1.4190    1.0000 </r>
       <r>    2.1369    1.0000 </r>
       <r>    4.8316    0.0000 </r>
       <r>    7.0171    0.0000 </r>
       <r>    7.8068    0.0000 </r>
       <r>    9.9776    0.0000 </r>
      </set>
      <set comment="kpoint 10">
       <r>   -6.2376    1.0000 </r>
       <r>   -2.3173    1.0000 </r>
       <r>    1.3124    1.0000 </r>
       <r>    2.3707    1.0000 </r>
       <r>    4.8344    0.0000 </r>
       <r>    7.2187    0.0000 </r>
       <r>    7.5612    0.0000 </r>
       <r>   10.0835    0.0000 </r>
      </set>
      <set comment="kpoint 11">
       <r>   -6.7814    1.0000 </r>
       <r>   -1.1152    1.0000 </r>
       <r>    1.5341    1.0000 </r>
       <r>    2.7851    1.0000 </r>
       <r>    4.9809    0.0000 </r>
       <r>    7.2164    0.0000 </r>
       <r>    7.3365    0.0000 </r>
       <r>    8.6595    0.0000 </r>
      </set>
      <set comment="kpoint 12">
       <r>   -7.2608    1.0000 </r>
       <r>    0.3681    1.0000 </r>
       <r>    2.2045    1.0000 </r>
       <r>    3.1969    1.0000 </r>
       <r>    4.9425    0.0000 </r>
       <r>    6.7056    0.0000 </r>
       <r>    6.7587    0.0000 </r>
       <r>    7.9108    0.0000 </r>
      </set>
      <set comment="kpoint 13">
       <r>   -6.8815    1.0000 </r>
       <r>   -0.5535    1.0000 </r>
       <r>    1.9337    1.0000 </r>
       <r>    1.9337    1.0000 </r>
       <r>    4.7830    0.0000 </r>
       <r>    6.1203    0.0000 </r>
       <r>    8.8497    0.0000 </r>
       <r>    8.8497    0.0000 </r>
      </set>
      <set comment="kpoint 14">
       <r>   -6.4159    1.0000 </r>
       <r>   -1.5975    1.0000 </r>
       <r>    1.2918    1.0000 </r>
       <r>    1.6452    1.0000 </r>
       <r>    4.9759    0.0000 </r>
       <r>    6.1501    0.0000 </r>
       <r>    8.7808    0.0000 </r>
       <r>    9.3808    0.0000 </r>
      </set>
      <set comment="kpoint 15">
       <r>   -5.9088    1.0000 </r>
       <r>   -2.4915    1.0000 </r>
       <r>    0.5904    1.0000 </r>
       <r>    1.6274    1.0000 </r>
       <r>    5.0930    0.0000 </r>
       <r>    7.3069    0.0000 </r>
       <r>    8.5930    0.0000 </r>
       <r>    9.2001    0.0000 </r>
      </set>
      <set comment="kpoint 16">
       <r>   -5.8308    1.0000 </r>
       <r>   -2.6049    1.0000 </r>
       <r>    0.2508    1.0000 </r>
       <r>    1.8822    1.0000 </r>
       <r>    5.2257    0.0000 </r>
       <r>    8.0014    0.0000 </r>
       <r>    8.7417    0.0000 </r>
       <r>    9.5911    0.0000 </r>
      </set>
      <set comment="kpoint 17">
       <r>   -6.2826    1.0000 </r>
       <r>   -1.9059    1.0000 </r>
       <r>    0.4951    1.0000 </r>
       <r>    2.3388    1.0000 </r>
       <r>    5.4043    0.0000 </r>
       <r>    8.0159    0.0000 </r>
       <r>    8.0770    0.0000 </r>
       <r>    8.4463    0.0000 </r>
      </set>
      <set comment="kpoint 18">
       <r>   -6.0410    1.0000 </r>
       <r>   -2.2140    1.0000 </r>
       <r>    1.3015    1.0000 </r>
       <r>    1.3015    1.0000 </r>
       <r>    4.4370    0.0000 </r>
       <r>    5.3283    0.0000 </r>
       <r>   10.6650    0.0000 </r>
       <r>   10.6650    0.0000 </r>
      </set>
      <set comment="kpoint 19">
       <r>   -5.6162    1.0000 </r>
       <r>   -2.8241    1.0000 </r>
       <r>    0.7226    1.0000 </r>
       <r>    1.2272    1.0000 </r>
       <r>    4.7087    0.0000 </r>
       <r>    5.6071    0.0000 </r>
       <r>   10.4726    0.0000 </r>
       <r>   10.8846    0.0000 </r>
      </set>
      <set comment="kpoint 20">
       <r>   -5.5108    1.0000 </r>
       <r>   -2.9198    1.0000 </r>
       <r>    0.1158    1.0000 </r>
       <r>    1.4393    1.0000 </r>
       <r>    4.9280    0.0000 </r>
       <r>    7.2882    0.0000 </r>
       <r>    9.8801    0.0000 </r>
       <r>   10.1123    0.0000 </r>
      </set>
      <set comment="kpoint 21">
       <r>   -5.4493    1.0000 </r>
       <r>   -3.0842    1.0000 </r>
       <r>    1.0819    1.0000 </r>
       <r>    1.0819    1.0000 </r>
       <r>    4.4409    0.0000 </r>
       <r>    4.8231    0.0000 </r>
       <r>   11.8544    0.0000 </r>
       <r>   11.8544    0.0000 </r>
      </set>
      <set comment="kpoint 22">
       <r>   -6.7218    1.0000 </r>
       <r>   -1.0416    1.0000 </r>
       <r>    1.3083    1.0000 </r>
       <r>    2.2614    1.0000 </r>
       <r>    5.6099    0.0000 </r>
       <r>    6.3176    0.0000 </r>
       <r>    7.9606    0.0000 </r>
       <r>    8.6140    0.0000 </r>
      </set>
      <set comment="kpoint 23">
       <r>   -6.1811    1.0000 </r>
       <r>   -2.1135    1.0000 </r>
       <r>    0.7344    1.0000 </r>
       <r>    1.8891    1.0000 </r>
       <r>    5.7181    0.0000 </r>
       <r>    6.8925    0.0000 </r>
       <r>    8.0879    0.0000 </r>
       <r>    9.1492    0.0000 </r>
      </set>
      <set comment="kpoint 24">
       <r>   -5.8697    1.0000 </r>
       <r>   -2.6397    1.0000 </r>
       <r>    0.5731    1.0000 </r>
       <r>    1.7203    1.0000 </r>
       <r>    5.6745    0.0000 </r>
       <r>    6.9409    0.0000 </r>
       <r>    8.7376    0.0000 </r>
       <r>    9.7516    0.0000 </r>
      </set>
      <set comment="kpoint 25">
       <r>   -5.9460    1.0000 </r>
       <r>   -2.3391    1.0000 </r>
       <r>    0.7695    1.0000 </r>
       <r>    1.2650    1.0000 </r>
       <r>    5.4465    0.0000 </r>
       <r>    6.0770    0.0000 </r>
       <r>    8.6445    0.0000 </r>
       <r>   10.5463    0.0000 </r>
      </set>
      <set comment="kpoint 26">
       <r>   -5.5800    1.0000 </r>
       <r>   -2.8187    1.0000 </r>
       <r>    0.2636    1.0000 </r>
       <r>    1.1178    1.0000 </r>
       <r>    5.7927    0.0000 </r>
       <r>    7.3477    0.0000 </r>
       <r>    8.3110    0.0000 </r>
       <r>    9.8404    0.0000 </r>
      </set>
      <set comment="kpoint 27">
       <r>   -5.7201    1.0000 </r>
       <r>   -2.6409    1.0000 </r>
       <r>    0.1465    1.0000 </r>
       <r>    1.4025    1.0000 </r>
       <r>    6.0214    0.0000 </r>
       <r>    7.7520    0.0000 </r>
       <r>    8.0599    0.0000 </r>
       <r>    9.6195    0.0000 </r>
      </set>
      <set comment="kpoint 28">
       <r>   -5.4335    1.0000 </r>
       <r>   -3.0264    1.0000 </r>
       <r>    0.6787    1.0000 </r>
       <r>    0.8051    1.0000 </r>
       <r>    5.4026    0.0000 </r>
       <r>    5.7231    0.0000 </r>
       <r>   10.2275    0.0000 </r>
       <r>   10.3013    0.0000 </r>
      </set>
      <set comment="kpoint 29">
       <r>   -5.4175    1.0000 </r>
       <r>   -2.9635    1.0000 </r>
       <r>    0.3536    1.0000 </r>
       <r>    0.5780    1.0000 </r>
       <r>    6.9913    0.0000 </r>
       <r>    7.7821    0.0000 </r>
       <r>    7.7862    0.0000 </r>
       <r>    8.2434    0.0000 </r>
      </set>
     </set>
    </set>
   </array>
  </eigenvalues>
  <separator name="orbital magnetization" >
   <v name="MAGDIPOLOUT">      0.00000000      0.00000000      0.00000000</v>
  </separator>
  <dos>
   <i name="efermi">      3.47636704 </i>
   <total>
    <array>
     <dimension dim="1">gridpoints</dimension>
     <dimension dim="2">spin</dimension>
     <field>energy</field>
     <field>total</field>
     <field>integrated</field>
     <set>
      <set comment="spin 1">
       <r>    -8.6189     0.0000     0.0000 </r>
       <r>    -6.4740     0.0146     0.5664 </r>
       <r>    -4.3292     0.0000     2.0000 </r>
       <r>    -2.1844     0.0109     3.1055 </r>
       <r>    -0.0396     0.0437     3.8945 </r>
       <r>     2.1052     0.0000     6.9258 </r>
       <r>     4.2500     0.0146     8.0820 </r>
       <r>     6.3949     0.0437    10.5859 </r>
       <r>     8.5397     0.0146    13.5859 </r>
       <r>    10.6845     0.0218    15.8827 </r>
       <r>    12.8293     0.0000    16.0000 </r>
      </set>
     </set>
    </array>
   </total>
   <partial>
    <array>
     <dimension dim="1">gridpoints</dimension>
     <dimension dim="2">spin</dimension>
     <dimension dim="3">ion</dimension>
     <field>energy</field>
     <field>  s  </field>
     <field>  p  </field>
     <field>  d  </field>
     <set>
      <set comment="ion 1">
       <set comment="spin 1">
        <r>    -8.6189     0.0000     0.0000     0.0000 </r>
        <r>    -6.4740     0.0025     0.0004     0.0001 </r>
        <r>    -4.3292     0.0000     0.0000     0.0000 </r>
        <r>    -2.1844     0.0048     0.0003     0.0001 </r>
        <r>    -0.0396     0.0130     0.0035     0.0007 </r>
        <r>     2.1052     0.0000     0.0000     0.0000 </r>
        <r>     4.2500     0.0037     0.0014     0.0002 </r>
        <r>     6.3949     0.0007     0.0159     0.0005 </r>
        <r>     8.5397     0.0010     0.0032     0.0004 </r>
        <r>    10.6845     0.0000     0.0068     0.0011 </r>
        <r>    12.8293     0.0000     0.0000     0.0000 </r>
       </set>
      </set>
      <set comment="ion 2">
       <set comment="spin 1">
        <r>    -8.6189     0.0000     0.0000     0.0000 </r>
        <r>    -6.4740     0.0063     0.0001     0.0000 </r>
        <r>    -4.3292     0.0000     0.0000     0.0000 </r>
        <r>    -2.1844     0.0012     0.0012     0.0000 </r>
        <r>    -0.0396     0.0069     0.0059     0.0002 </r>
        <r>     2.1052     0.0000     0.0000     0.0000 </r>
        <r>     4.2500     0.0019     0.0013     0.0002 </r>
        <r>     6.3949     0.0044     0.0007     0.0015 </r>
        <r>     8.5397     0.0010     0.0024     0.0004 </r>
        <r>    10.6845     0.0000     0.0041     0.0015 </r>
        <r>    12.8293     0.0000     0.0000     0.0000 </r>
       </set>
      </set>
     </set>
    </array>
   </partial>
  </dos>
  <projected>
   <eigenvalues>
    <array>
     <dimension dim="1">band</dimension>
     <dimension dim="2">kpoint</dimension>
     <dimension dim="3">spin</dimension>
     <field>eigene</field>
     <field>occ</field>
     <set>
      <set comment="spin 1">
       <set comment="kpoint 1">
        <r>   -7.6439    1.0000 </r>
        <r>    3.2010    1.0000 </r>
        <r>    3.4733    0.6667 </r>
        <r>    3.4733    0.6667 </r>
        <r>    3.4733    0.6667 </r>
        <r>    6.2824    0.0000 </r>
        <r>    6.2824    0.0000 </r>
        <r>    6.2824    0.0000 </r>
       </set>
       <set comment="kpoint 2">
        <r>   -7.4980    1.0000 </r>
        <r>    1.4308    1.0000 </r>
        <r>    3.2427    1.0000 </r>
        <r>    3.2427    1.0000 </r>
        <r>    4.3528    0.0000 </r>
        <r>    6.6045    0.0000 </r>
        <r>    6.6045    0.0000 </r>
        <r>    6.8324    0.0000 </r>
       </set>
       <set comment="kpoint 3">
        <r>   -7.0840    1.0000 </r>
        <r>   -0.4632    1.0000 </r>
        <r>    2.8273    1.0000 </r>
        <r>    2.8273    1.0000 </r>
        <r>    4.1863    0.0000 </r>
        <r>    7.1012    0.0000 </r>
        <r>    7.1012    0.0000 </r>
        <r>    8.4792    0.0000 </r>
       </set>
       <set comment="kpoint 4">
        <r>   -6.5180    1.0000 </r>
        <r>   -1.9760    1.0000 </r>
        <r>    2.5149    1.0000 </r>
        <r>    2.5149    1.0000 </r>
        <r>    3.9060    0.0000 </r>
        <r>    7.2489    0.0000 </r>
        <r>    7.2489    0.0000 </r>
        <r>   10.0443    0.0000 </r>
       </set>
       <set comment="kpoint 5">
        <r>   -6.1896    1.0000 </r>
        <r>   -2.6278    1.0000 </r>
        <r>    2.4037    1.0000 </r>
        <r>    2.4037    1.0000 </r>
        <r>    3.8002    0.0000 </r>
        <r>    7.2343    0.0000 </r>
        <r>    7.2343    0.0000 </r>
        <r>    9.9727    0.0000 </r>
       </set>
       <set comment="kpoint 6">
        <r>   -7.4485    1.0000 </r>
        <r>    1.3431    1.0000 </r>
        <r>    2.8529    1.0000 </r>
        <r>    2.8529    1.0000 </r>
        <r>    5.0246    0.0000 </r>
        <r>    5.9212    0.0000 </r>
        <r>    7.1670    0.0000 </r>
        <r>    7.1670    0.0000 </r>
       </set>
       <set comment="kpoint 7">
        <r>   -7.1199    1.0000 </r>
        <r>   -0.0766    1.0000 </r>
        <r>    2.3483    1.0000 </r>
        <r>    2.4108    1.0000 </r>
        <r>    5.1929    0.0000 </r>
        <r>    6.1795    0.0000 </r>
        <r>    7.8355    0.0000 </r>
        <r>    8.0403    0.0000 </r>
       </set>
       <set comment="kpoint 8">
        <r>   -6.5859    1.0000 </r>
        <r>   -1.5892    1.0000 </r>
        <r>    1.7949    1.0000 </r>
        <r>    2.1489    1.0000 </r>
        <r>    5.0038    0.0000 </r>
        <r>    6.7794    0.0000 </r>
        <r>    8.0089    0.0000 </r>
        <r>    8.7039    0.0000 </r>
       </set>
       <set comment="kpoint 9">
        <r>   -6.1181    1.0000 </r>
        <r>   -2.5390    1.0000 </r>
        <r>    1.4190    1.0000 </r>
        <r>    2.1369    1.0000 </r>
        <r>    4.8316    0.0000 </r>
        <r>    7.0171    0.0000 </r>
        <r>    7.8068    0.0000 </r>
        <r>    9.9776    0.0000 </r>
       </set>
       <set comment="kpoint 10">
        <r>   -6.2376    1.0000 </r>
        <r>   -2.3173    1.0000 </r>
        <r>    1.3124    1.0000 </r>
        <r>    2.3707    1.0000 </r>
        <r>    4.8344    0.0000 </r>
        <r>    7.2187    0.0000 </r>
        <r>    7.5612    0.0000 </r>
        <r>   10.0835    0.0000 </r>
       </set>
       <set comment="kpoint 11">
        <r>   -6.7814    1.0000 </r>
        <r>   -1.1152    1.0000 </r>
        <r>    1.5341    1.0000 </r>
        <r>    2.7851    1.0000 </r>
        <r>    4.9809    0.0000 </r>
        <r>    7.2164    0.0000 </r>
        <r>    7.3365    0.0000 </r>
        <r>    8.6595    0.0000 </r>
       </set>
       <set comment="kpoint 12">
        <r>   -7.2608    1.0000 </r>
        <r>    0.3681    1.0000 </r>
        <r>    2.2045    1.0000 </r>
        <r>    3.1969    1.0000 </r>
        <r>    4.9425    0.0000 </r>
        <r>    6.7056    0.0000 </r>
        <r>    6.7587    0.0000 </r>
        <r>    7.9108    0.0000 </r>
       </set>
       <set comment="kpoint 13">
        <r>   -6.8815    1.0000 </r>
        <r>   -0.5535    1.0000 </r>
        <r>    1.9337    1.0000 </r>
        <r>    1.9337    1.0000 </r>
        <r>    4.7830    0.0000 </r>
        <r>    6.1203    0.0000 </r>
        <r>    8.8497    0.0000 </r>
        <r>    8.8497    0.0000 </r>
       </set>
       <set comment="kpoint 14">
        <r>   -6.4159    1.0000 </r>
        <r>   -1.5975    1.0000 </r>
        <r>    1.2918    1.0000 </r>
        <r>    1.6452    1.0000 </r>
        <r>    4.9759    0.0000 </r>
        <r>    6.1501    0.0000 </r>
        <r>    8.7808    0.0000 </r>
        <r>    9.3808    0.0000 </r>
       </set>
       <set comment="kpoint 15">
        <r>   -5.9088    1.0000 </r>
        <r>   -2.4915    1.0000 </r>
        <r>    0.5904    1.0000 </r>
        <r>    1.6274    1.0000 </r>
        <r>    5.0930    0.0000 </r>
        <r>    7.3069    0.0000 </r>
        <r>    8.5930    0.0000 </r>
        <r>    9.2001    0.0000 </r>
       </set>
       <set comment="kpoint 16">
        <r>   -5.8308    1.0000 </r>
        <r>   -2.6049    1.0000 </r>
        <r>    0.2508    1.0000 </r>
        <r>    1.8822    1.0000 </r>
        <r>    5.2257    0.0000 </r>
        <r>    8.0014    0.0000 </r>
        <r>    8.7417    0.0000 </r>
        <r>    9.5911    0.0000 </r>
       </set>
       <set comment="kpoint 17">
        <r>   -6.2826    1.0000 </r>
        <r>   -1.9059    1.0000 </r>
        <r>    0.4951    1.0000 </r>
        <r>    2.3388    1.0000 </r>
        <r>    5.4043    0.0000 </r>
        <r>    8.0159    0.0000 </r>
        <r>    8.0770    0.0000 </r>
        <r>    8.4463    0.0000 </r>
       </set>
       <set comment="kpoint 18">
        <r>   -6.0410    1.0000 </r>
        <r>   -2.2140    1.0000 </r>
        <r>    1.3015    1.0000 </r>
        <r>    1.3015    1.0000 </r>
        <r>    4.4370    0.0000 </r>
        <r>    5.3283    0.0000 </r>
        <r>   10.6650    0.0000 </r>
        <r>   10.6650    0.0000 </r>
       </set>
       <set comment="kpoint 19">
        <r>   -5.6162    1.0000 </r>
        <r>   -2.8241    1.0000 </r>
        <r>    0.7226    1.0000 </r>
        <r>    1.2272    1.0000 </r>
        <r>    4.7087    0.0000 </r>
        <r>    5.6071    0.0000 </r>
        <r>   10.4726    0.0000 </r>
        <r>   10.8846    0.0000 </r>
       </set>
       <set comment="kpoint 20">
        <r>   -5.5108    1.0000 </r>
        <r>   -2.9198    1.0000 </r>
        <r>    0.1158    1.0000 </r>
        <r>    1.4393    1.0000 </r>
        <r>    4.9280    0.0000 </r>
        <r>    7.2882    0.0000 </r>
        <r>    9.8801    0.0000 </r>
        <r>   10.1123    0.0000 </r>
       </set>
       <set comment="kpoint 21">
        <r>   -5.4493    1.0000 </r>
        <r>   -3.0842    1.0000 </r>
        <r>    1.0819    1.0000 </r>
        <r>    1.0819    1.0000 </r>
        <r>    4.4409    0.0000 </r>
        <r>    4.8231    0.0000 </r>
        <r>   11.8544    0.0000 </r>
        <r>   11.8544    0.0000 </r>
       </set>
       <set comment="kpoint 22">
        <r>   -6.7218    1.0000 </r>
        <r>   -1.0416    1.0000 </r>
        <r>    1.3083    1.0000 </r>
        <r>    2.2614    1.0000 </r>
        <r>    5.6099    0.0000 </r>
        <r>    6.3176    0.0000 </r>
        <r>    7.9606    0.0000 </r>
        <r>    8.6140    0.0000 </r>
       </set>
       <set comment="kpoint 23">
        <r>   -6.1811    1.0000 </r>
        <r>   -2.1135    1.0000 </r>
        <r>    0.7344    1.0000 </r>
        <r>    1.8891    1.0000 </r>
        <r>    5.7181    0.0000 </r>
        <r>    6.8925    0.0000 </r>
        <r>    8.0879    0.0000 </r>
        <r>    9.1492    0.0000 </r>
       </set>
       <set comment="kpoint 24">
        <r>   -5.8697    1.0000 </r>
        <r>   -2.6397    1.0000 </r>
        <r>    0.5731    1.0000 </r>
        <r>    1.7203    1.0000 </r>
        <r>    5.6745    0.0000 </r>
        <r>    6.9409    0.0000 </r>
        <r>    8.7376    0.0000 </r>
        <r>    9.7516    0.0000 </r>
       </set>
       <set comment="kpoint 25">
        <r>   -5.9460    1.0000 </r>
        <r>   -2.3391    1.0000 </r>
        <r>    0.7695    1.0000 </r>
        <r>    1.2650    1.0000 </r>
        <r>    5.4465    0.0000 </r>
        <r>    6.0770    0.0000 </r>
        <r>    8.6445    0.0000 </r>
        <r>   10.5463    0.0000 </r>
       </set>
       <set comment="kpoint 26">
        <r>   -5.5800    1.0000 </r>
        <r>   -2.8187    1.0000 </r>
        <r>    0.2636    1.0000 </r>
        <r>    1.1178    1.0000 </r>
        <r>    5.7927    0.0000 </r>
        <r>    7.3477    0.0000 </r>
        <r>    8.3110    0.0000 </r>
        <r>    9.8404    0.0000 </r>
       </set>
       <set comment="kpoint 27">
        <r>   -5.7201    1.0000 </r>
        <r>   -2.6409    1.0000 </r>
        <r>    0.1465    1.0000 </r>
        <r>    1.4025    1.0000 </r>
        <r>    6.0214    0.0000 </r>
        <r>    7.7520    0.0000 </r>
        <r>    8.0599    0.0000 </r>
        <r>    9.6195    0.0000 </r>
       </set>
       <set comment="kpoint 28">
        <r>   -5.4335    1.0000 </r>
        <r>   -3.0264    1.0000 </r>
        <r>    0.6787    1.0000 </r>
        <r>    0.8051    1.0000 </r>
        <r>    5.4026    0.0000 </r>
        <r>    5.7231    0.0000 </r>
        <r>   10.2275    0.0000 </r>
        <r>   10.3013    0.0000 </r>
       </set>
       <set comment="kpoint 29">
        <r>   -5.4175    1.0000 </r>
        <r>   -2.9635    1.0000 </r>
        <r>    0.3536    1.0000 </r>
        <r>    0.5780    1.0000 </r>
        <r>    6.9913    0.0000 </r>
        <r>    7.7821    0.0000 </r>
        <r>    7.7862    0.0000 </r>
        <r>    8.2434    0.0000 </r>
       </set>
      </set>
     </set>
    </array>
   </eigenvalues>
   <array>
    <dimension dim="1">ion</dimension>
    <dimension dim="2">band</dimension>
    <dimension dim="3">kpoint</dimension>
    <dimension dim="4">spin</dimension>
    <field>  s  </field>
    <field>  p  </field>
    <field>  d  </field>
    <set>
     <set comment="spin1">
      <set comment="kpoint 1">
       <set comment="band 1">
        <r>  0.2370  0.0000  0.0000 </r>
        <r>  0.3748  0.0000  0.0000 </r>
       </set>
       <set comment="band 2">
        <r>  0.5171  0.0000  0.0000 </r>
        <r>  0.3327  0.0000  0.0000 </r>
       </set>
       <set comment="band 3">
        <r>  0.0000  0.1577  0.0507 </r>
        <r>  0.0000  0.3882  0.0065 </r>
       </set>
       <set comment="band 4">
        <r>  0.0000  0.1577  0.0507 </r>
        <r>  0.0000  0.3882  0.0065 </r>
       </set>
       <set comment="band 5">
        <r>  0.0000  0.1577  0.0507 </r>
        <r>  0.0000  0.3882  0.0065 </r>
       </set>
       <set comment="band 6">
        <r>  0.0000  0.3957  0.0143 </r>
        <r>  0.0000  0.0574  0.0532 </r>
       </set>
       <set comment="band 7">
        <r>  0.0000  0.3957  0.0143 </r>
        <r>  0.0000  0.0574  0.0532 </r>
       </set>
       <set comment="band 8">
        <r>  0.0000  0.3957  0.0143 </r>
        <r>  0.0000  0.0574  0.0532 </r>
       </set>
      </set>
      <set comment="kpoint 2">
       <set comment="band 1">
        <r>  0.2302  0.0037  0.0004 </r>
        <r>  0.3791  0.0013  0.0000 </r>
       </set>
       <set comment="band 2">
        <r>  0.2604  0.0923  0.0200 </r>
        <r>  0.1627  0.1569  0.0048 </r>
       </set>
       <set comment="band 3">
        <r>  0.0000  0.1818  0.0426 </r>
        <r>  0.0000  0.3635  0.0069 </r>
       </set>
       <set comment="band 4">
        <r>  0.0000  0.1818  0.0426 </r>
        <r>  0.0000  0.3635  0.0069 </r>
       </set>
       <set comment="band 5">
        <r>  0.2576  0.0958  0.0143 </r>
        <r>  0.1361  0.1564  0.0062 </r>
       </set>
       <set comment="band 6">
        <r>  0.0000  0.3720  0.0217 </r>
        <r>  0.0000  0.0817  0.0530 </r>
       </set>
       <set comment="band 7">
        <r>  0.0000  0.3720  0.0217 </r>
        <r>  0.0000  0.0817  0.0530 </r>
       </set>
       <set comment="band 8">
        <r>  0.0312  0.2946  0.0263 </r>
        <r>  0.0436  0.1088  0.0420 </r>
       </set>
      </set>
      <set comment="kpoint 3">
       <set comment="band 1">
        <r>  0.2086  0.0140  0.0017 </r>
        <r>  0.3952  0.0040  0.0001 </r>
       </set>
       <set comment="band 2">
        <r>  0.2661  0.0948  0.0123 </r>
        <r>  0.1333  0.1404  0.0038 </r>
       </set>
       <set comment="band 3">
        <r>  0.0000  0.2128  0.0311 </r>
        <r>  0.0000  0.3361  0.0060 </r>
       </set>
       <set comment="band 4">
        <r>  0.0000  0.2128  0.0311 </r>
        <r>  0.0000  0.3361  0.0060 </r>
       </set>
       <set comment="band 5">
        <r>  0.2569  0.0975  0.0113 </r>
        <r>  0.1289  0.0877  0.0137 </r>
       </set>
       <set comment="band 6">
        <r>  0.0000  0.3229  0.0349 </r>
        <r>  0.0000  0.0982  0.0556 </r>
       </set>
       <set comment="band 7">
        <r>  0.0000  0.3229  0.0349 </r>
        <r>  0.0000  0.0982  0.0556 </r>
       </set>
       <set comment="band 8">
        <r>  0.0680  0.2165  0.0279 </r>
        <r>  0.0672  0.1677  0.0277 </r>
       </set>
      </set>
      <set comment="kpoint 4">
       <set comment="band 1">
        <r>  0.1704  0.0277  0.0043 </r>
        <r>  0.4323  0.0048  0.0004 </r>
       </set>
       <set comment="band 2">
        <r>  0.3020  0.0844  0.0046 </r>
        <r>  0.0921  0.1288  0.0023 </r>
       </set>
       <set comment="band 3">
        <r>  0.0000  0.2304  0.0237 </r>
        <r>  0.0000  0.3238  0.0046 </r>
       </set>
       <set comment="band 4">
        <r>  0.0000  0.2304  0.0237 </r>
        <r>  0.0000  0.3238  0.0046 </r>
       </set>
       <set comment="band 5">
        <r>  0.2656  0.0798  0.0142 </r>
        <r>  0.1357  0.0652  0.0163 </r>
       </set>
       <set comment="band 6">
        <r>  0.0000  0.2625  0.0489 </r>
        <r>  0.0000  0.0856  0.0614 </r>
       </set>
       <set comment="band 7">
        <r>  0.0000  0.2625  0.0489 </r>
        <r>  0.0000  0.0856  0.0614 </r>
       </set>
       <set comment="band 8">
        <r>  0.0023  0.1424  0.0206 </r>
        <r>  0.0032  0.1063  0.0162 </r>
       </set>
      </set>
      <set comment="kpoint 5">
       <set comment="band 1">
        <r>  0.1395  0.0357  0.0065 </r>
        <r>  0.4685  0.0024  0.0006 </r>
       </set>
       <set comment="band 2">
        <r>  0.3329  0.0770  0.0006 </r>
        <r>  0.0549  0.1274  0.0016 </r>
       </set>
       <set comment="band 3">
        <r>  0.0000  0.2360  0.0212 </r>
        <r>  0.0000  0.3205  0.0039 </r>
       </set>
       <set comment="band 4">
        <r>  0.0000  0.2360  0.0212 </r>
        <r>  0.0000  0.3205  0.0039 </r>
       </set>
       <set comment="band 5">
        <r>  0.2699  0.0727  0.0155 </r>
        <r>  0.1390  0.0594  0.0171 </r>
       </set>
       <set comment="band 6">
        <r>  0.0000  0.2391  0.0541 </r>
        <r>  0.0000  0.0778  0.0638 </r>
       </set>
       <set comment="band 7">
        <r>  0.0000  0.2391  0.0541 </r>
        <r>  0.0000  0.0778  0.0638 </r>
       </set>
       <set comment="band 8">
        <r>  0.0088  0.0671  0.0195 </r>
        <r>  0.0033  0.0411  0.0144 </r>
       </set>
      </set>
      <set comment="kpoint 6">
       <set comment="band 1">
        <r>  0.2277  0.0050  0.0005 </r>
        <r>  0.3805  0.0017  0.0000 </r>
       </set>
       <set comment="band 2">
        <r>  0.3054  0.0705  0.0205 </r>
        <r>  0.1894  0.1399  0.0047 </r>
       </set>
       <set comment="band 3">
        <r>  0.0000  0.2018  0.0339 </r>
        <r>  0.0000  0.3291  0.0071 </r>
       </set>
       <set comment="band 4">
        <r>  0.0000  0.2018  0.0339 </r>
        <r>  0.0000  0.3291  0.0071 </r>
       </set>
       <set comment="band 5">
        <r>  0.2413  0.0048  0.0346 </r>
        <r>  0.0637  0.2796  0.0029 </r>
       </set>
       <set comment="band 6">
        <r>  0.0042  0.4075  0.0034 </r>
        <r>  0.0848  0.0002  0.0423 </r>
       </set>
       <set comment="band 7">
        <r>  0.0000  0.3512  0.0315 </r>
        <r>  0.0000  0.1177  0.0550 </r>
       </set>
       <set comment="band 8">
        <r>  0.0000  0.3512  0.0315 </r>
        <r>  0.0000  0.1177  0.0550 </r>
       </set>
      </set>
      <set comment="kpoint 7">
       <set comment="band 1">
        <r>  0.2103  0.0134  0.0015 </r>
        <r>  0.3928  0.0041  0.0001 </r>
       </set>
       <set comment="band 2">
        <r>  0.2980  0.0796  0.0154 </r>
        <r>  0.1586  0.1346  0.0044 </r>
       </set>
       <set comment="band 3">
        <r>  0.0317  0.2007  0.0242 </r>
        <r>  0.0151  0.2797  0.0067 </r>
       </set>
       <set comment="band 4">
        <r>  0.0000  0.2221  0.0247 </r>
        <r>  0.0000  0.3076  0.0058 </r>
       </set>
       <set comment="band 5">
        <r>  0.2048  0.0392  0.0322 </r>
        <r>  0.0444  0.2341  0.0126 </r>
       </set>
       <set comment="band 6">
        <r>  0.0216  0.3671  0.0092 </r>
        <r>  0.0803  0.0292  0.0378 </r>
       </set>
       <set comment="band 7">
        <r>  0.0000  0.3210  0.0419 </r>
        <r>  0.0000  0.1341  0.0589 </r>
       </set>
       <set comment="band 8">
        <r>  0.0140  0.2401  0.0459 </r>
        <r>  0.0159  0.1271  0.0525 </r>
       </set>
      </set>
      <set comment="kpoint 8">
       <set comment="band 1">
        <r>  0.1751  0.0270  0.0038 </r>
        <r>  0.4239  0.0058  0.0003 </r>
       </set>
       <set comment="band 2">
        <r>  0.3191  0.0767  0.0075 </r>
        <r>  0.1149  0.1253  0.0031 </r>
       </set>
       <set comment="band 3">
        <r>  0.0546  0.1936  0.0181 </r>
        <r>  0.0261  0.2472  0.0059 </r>
       </set>
       <set comment="band 4">
        <r>  0.0000  0.2346  0.0191 </r>
        <r>  0.0000  0.3012  0.0044 </r>
       </set>
       <set comment="band 5">
        <r>  0.1848  0.0994  0.0249 </r>
        <r>  0.0754  0.1727  0.0163 </r>
       </set>
       <set comment="band 6">
        <r>  0.0215  0.2775  0.0299 </r>
        <r>  0.0293  0.0745  0.0460 </r>
       </set>
       <set comment="band 7">
        <r>  0.0000  0.2679  0.0537 </r>
        <r>  0.0000  0.1157  0.0646 </r>
       </set>
       <set comment="band 8">
        <r>  0.0156  0.1482  0.0600 </r>
        <r>  0.0189  0.0977  0.0549 </r>
       </set>
      </set>
      <set comment="kpoint 9">
       <set comment="band 1">
        <r>  0.1307  0.0392  0.0067 </r>
        <r>  0.4723  0.0035  0.0005 </r>
       </set>
       <set comment="band 2">
        <r>  0.3598  0.0677  0.0016 </r>
        <r>  0.0622  0.1229  0.0023 </r>
       </set>
       <set comment="band 3">
        <r>  0.0591  0.1931  0.0149 </r>
        <r>  0.0285  0.2359  0.0049 </r>
       </set>
       <set comment="band 4">
        <r>  0.0000  0.2395  0.0178 </r>
        <r>  0.0000  0.3048  0.0039 </r>
       </set>
       <set comment="band 5">
        <r>  0.1886  0.1115  0.0223 </r>
        <r>  0.0882  0.1455  0.0174 </r>
       </set>
       <set comment="band 6">
        <r>  0.0128  0.2099  0.0455 </r>
        <r>  0.0131  0.0751  0.0536 </r>
       </set>
       <set comment="band 7">
        <r>  0.0000  0.2388  0.0577 </r>
        <r>  0.0000  0.0965  0.0661 </r>
       </set>
       <set comment="band 8">
        <r>  0.0075  0.1892  0.0416 </r>
        <r>  0.0081  0.1258  0.0389 </r>
       </set>
      </set>
      <set comment="kpoint 10">
       <set comment="band 1">
        <r>  0.1441  0.0359  0.0059 </r>
        <r>  0.4573  0.0045  0.0005 </r>
       </set>
       <set comment="band 2">
        <r>  0.3473  0.0707  0.0031 </r>
        <r>  0.0780  0.1228  0.0025 </r>
       </set>
       <set comment="band 3">
        <r>  0.0517  0.1967  0.0140 </r>
        <r>  0.0242  0.2358  0.0046 </r>
       </set>
       <set comment="band 4">
        <r>  0.0000  0.2358  0.0211 </r>
        <r>  0.0000  0.3164  0.0044 </r>
       </set>
       <set comment="band 5">
        <r>  0.1968  0.1148  0.0199 </r>
        <r>  0.0936  0.1393  0.0168 </r>
       </set>
       <set comment="band 6">
        <r>  0.0097  0.2013  0.0492 </r>
        <r>  0.0103  0.0795  0.0560 </r>
       </set>
       <set comment="band 7">
        <r>  0.0000  0.2569  0.0505 </r>
        <r>  0.0000  0.0927  0.0617 </r>
       </set>
       <set comment="band 8">
        <r>  0.0166  0.2090  0.0331 </r>
        <r>  0.0174  0.1616  0.0282 </r>
       </set>
      </set>
      <set comment="kpoint 11">
       <set comment="band 1">
        <r>  0.1895  0.0218  0.0029 </r>
        <r>  0.4108  0.0055  0.0002 </r>
       </set>
       <set comment="band 2">
        <r>  0.3080  0.0801  0.0099 </r>
        <r>  0.1309  0.1280  0.0036 </r>
       </set>
       <set comment="band 3">
        <r>  0.0339  0.2036  0.0159 </r>
        <r>  0.0136  0.2468  0.0054 </r>
       </set>
       <set comment="band 4">
        <r>  0.0000  0.2206  0.0289 </r>
        <r>  0.0000  0.3374  0.0056 </r>
       </set>
       <set comment="band 5">
        <r>  0.2092  0.1154  0.0169 </r>
        <r>  0.0949  0.1526  0.0138 </r>
       </set>
       <set comment="band 6">
        <r>  0.0000  0.3154  0.0346 </r>
        <r>  0.0000  0.0949  0.0542 </r>
       </set>
       <set comment="band 7">
        <r>  0.0154  0.2467  0.0429 </r>
        <r>  0.0212  0.0935  0.0540 </r>
       </set>
       <set comment="band 8">
        <r>  0.0336  0.1898  0.0405 </r>
        <r>  0.0370  0.1426  0.0365 </r>
       </set>
      </set>
      <set comment="kpoint 12">
       <set comment="band 1">
        <r>  0.2182  0.0097  0.0011 </r>
        <r>  0.3873  0.0031  0.0001 </r>
       </set>
       <set comment="band 2">
        <r>  0.2856  0.0846  0.0168 </r>
        <r>  0.1623  0.1407  0.0045 </r>
       </set>
       <set comment="band 3">
        <r>  0.0127  0.2078  0.0235 </r>
        <r>  0.0021  0.2790  0.0070 </r>
       </set>
       <set comment="band 4">
        <r>  0.0000  0.1936  0.0395 </r>
        <r>  0.0000  0.3651  0.0063 </r>
       </set>
       <set comment="band 5">
        <r>  0.2370  0.0986  0.0157 </r>
        <r>  0.1054  0.1838  0.0073 </r>
       </set>
       <set comment="band 6">
        <r>  0.0000  0.3620  0.0225 </r>
        <r>  0.0000  0.0786  0.0519 </r>
       </set>
       <set comment="band 7">
        <r>  0.0169  0.2879  0.0311 </r>
        <r>  0.0421  0.0796  0.0467 </r>
       </set>
       <set comment="band 8">
        <r>  0.0200  0.2820  0.0361 </r>
        <r>  0.0224  0.1526  0.0461 </r>
       </set>
      </set>
      <set comment="kpoint 13">
       <set comment="band 1">
        <r>  0.1951  0.0203  0.0023 </r>
        <r>  0.4030  0.0058  0.0001 </r>
       </set>
       <set comment="band 2">
        <r>  0.3489  0.0567  0.0153 </r>
        <r>  0.1692  0.1200  0.0046 </r>
       </set>
       <set comment="band 3">
        <r>  0.0000  0.2338  0.0173 </r>
        <r>  0.0000  0.2884  0.0045 </r>
       </set>
       <set comment="band 4">
        <r>  0.0000  0.2338  0.0173 </r>
        <r>  0.0000  0.2884  0.0045 </r>
       </set>
       <set comment="band 5">
        <r>  0.1360  0.0817  0.0326 </r>
        <r>  0.0047  0.1229  0.0299 </r>
       </set>
       <set comment="band 6">
        <r>  0.0740  0.2217  0.0205 </r>
        <r>  0.0984  0.0884  0.0225 </r>
       </set>
       <set comment="band 7">
        <r>  0.0000  0.3180  0.0482 </r>
        <r>  0.0000  0.1614  0.0630 </r>
       </set>
       <set comment="band 8">
        <r>  0.0000  0.3180  0.0482 </r>
        <r>  0.0000  0.1614  0.0630 </r>
       </set>
      </set>
      <set comment="kpoint 14">
       <set comment="band 1">
        <r>  0.1591  0.0336  0.0043 </r>
        <r>  0.4328  0.0073  0.0003 </r>
       </set>
       <set comment="band 2">
        <r>  0.3839  0.0490  0.0100 </r>
        <r>  0.1349  0.1130  0.0040 </r>
       </set>
       <set comment="band 3">
        <r>  0.0162  0.2206  0.0120 </r>
        <r>  0.0055  0.2526  0.0040 </r>
       </set>
       <set comment="band 4">
        <r>  0.0000  0.2419  0.0125 </r>
        <r>  0.0000  0.2815  0.0032 </r>
       </set>
       <set comment="band 5">
        <r>  0.1257  0.0826  0.0357 </r>
        <r>  0.0136  0.1281  0.0310 </r>
       </set>
       <set comment="band 6">
        <r>  0.0620  0.1903  0.0294 </r>
        <r>  0.0730  0.0822  0.0279 </r>
       </set>
       <set comment="band 7">
        <r>  0.0223  0.2111  0.0561 </r>
        <r>  0.0230  0.1141  0.0603 </r>
       </set>
       <set comment="band 8">
        <r>  0.0000  0.2845  0.0570 </r>
        <r>  0.0000  0.1533  0.0693 </r>
       </set>
      </set>
      <set comment="kpoint 15">
       <set comment="band 1">
        <r>  0.1011  0.0496  0.0075 </r>
        <r>  0.4896  0.0051  0.0004 </r>
       </set>
       <set comment="band 2">
        <r>  0.4409  0.0384  0.0038 </r>
        <r>  0.0725  0.1110  0.0037 </r>
       </set>
       <set comment="band 3">
        <r>  0.0261  0.2041  0.0091 </r>
        <r>  0.0107  0.2262  0.0030 </r>
       </set>
       <set comment="band 4">
        <r>  0.0000  0.2454  0.0115 </r>
        <r>  0.0000  0.2835  0.0028 </r>
       </set>
       <set comment="band 5">
        <r>  0.1184  0.1008  0.0347 </r>
        <r>  0.0401  0.1024  0.0305 </r>
       </set>
       <set comment="band 6">
        <r>  0.0795  0.1637  0.0286 </r>
        <r>  0.0430  0.1651  0.0297 </r>
       </set>
       <set comment="band 7">
        <r>  0.0109  0.2012  0.0620 </r>
        <r>  0.0268  0.0688  0.0597 </r>
       </set>
       <set comment="band 8">
        <r>  0.0000  0.2476  0.0622 </r>
        <r>  0.0000  0.1295  0.0718 </r>
       </set>
      </set>
      <set comment="kpoint 16">
       <set comment="band 1">
        <r>  0.0902  0.0515  0.0083 </r>
        <r>  0.5036  0.0037  0.0004 </r>
       </set>
       <set comment="band 2">
        <r>  0.4541  0.0379  0.0023 </r>
        <r>  0.0572  0.1110  0.0038 </r>
       </set>
       <set comment="band 3">
        <r>  0.0215  0.2007  0.0077 </r>
        <r>  0.0094  0.2193  0.0022 </r>
       </set>
       <set comment="band 4">
        <r>  0.0000  0.2438  0.0144 </r>
        <r>  0.0000  0.2934  0.0035 </r>
       </set>
       <set comment="band 5">
        <r>  0.1311  0.1122  0.0312 </r>
        <r>  0.0536  0.1024  0.0284 </r>
       </set>
       <set comment="band 6">
        <r>  0.0719  0.1476  0.0295 </r>
        <r>  0.0279  0.1744  0.0406 </r>
       </set>
       <set comment="band 7">
        <r>  0.0000  0.2627  0.0526 </r>
        <r>  0.0000  0.1261  0.0638 </r>
       </set>
       <set comment="band 8">
        <r>  0.0225  0.2517  0.0434 </r>
        <r>  0.0387  0.1274  0.0310 </r>
       </set>
      </set>
      <set comment="kpoint 17">
       <set comment="band 1">
        <r>  0.1481  0.0359  0.0053 </r>
        <r>  0.4476  0.0063  0.0003 </r>
       </set>
       <set comment="band 2">
        <r>  0.3890  0.0546  0.0067 </r>
        <r>  0.1125  0.1129  0.0039 </r>
       </set>
       <set comment="band 3">
        <r>  0.0175  0.2042  0.0089 </r>
        <r>  0.0049  0.2249  0.0029 </r>
       </set>
       <set comment="band 4">
        <r>  0.0000  0.2356  0.0209 </r>
        <r>  0.0000  0.3127  0.0047 </r>
       </set>
       <set comment="band 5">
        <r>  0.1643  0.1228  0.0237 </r>
        <r>  0.0682  0.1300  0.0222 </r>
       </set>
       <set comment="band 6">
        <r>  0.0000  0.3015  0.0392 </r>
        <r>  0.0000  0.1210  0.0549 </r>
       </set>
       <set comment="band 7">
        <r>  0.0757  0.1338  0.0255 </r>
        <r>  0.0049  0.1654  0.0616 </r>
       </set>
       <set comment="band 8">
        <r>  0.0014  0.2362  0.0612 </r>
        <r>  0.0659  0.0912  0.0218 </r>
       </set>
      </set>
      <set comment="kpoint 18">
       <set comment="band 1">
        <r>  0.1168  0.0475  0.0060 </r>
        <r>  0.4667  0.0075  0.0003 </r>
       </set>
       <set comment="band 2">
        <r>  0.4372  0.0299  0.0078 </r>
        <r>  0.1059  0.1079  0.0039 </r>
       </set>
       <set comment="band 3">
        <r>  0.0000  0.2473  0.0079 </r>
        <r>  0.0000  0.2727  0.0020 </r>
       </set>
       <set comment="band 4">
        <r>  0.0000  0.2473  0.0079 </r>
        <r>  0.0000  0.2727  0.0020 </r>
       </set>
       <set comment="band 5">
        <r>  0.1357  0.0593  0.0364 </r>
        <r>  0.0127  0.0984  0.0326 </r>
       </set>
       <set comment="band 6">
        <r>  0.0430  0.1502  0.0392 </r>
        <r>  0.0633  0.0415  0.0326 </r>
       </set>
       <set comment="band 7">
        <r>  0.0000  0.3142  0.0517 </r>
        <r>  0.0000  0.1874  0.0674 </r>
       </set>
       <set comment="band 8">
        <r>  0.0000  0.3142  0.0517 </r>
        <r>  0.0000  0.1874  0.0674 </r>
       </set>
      </set>
      <set comment="kpoint 19">
       <set comment="band 1">
        <r>  0.0451  0.0660  0.0092 </r>
        <r>  0.5330  0.0034  0.0002 </r>
       </set>
       <set comment="band 2">
        <r>  0.5165  0.0115  0.0033 </r>
        <r>  0.0403  0.1081  0.0040 </r>
       </set>
       <set comment="band 3">
        <r>  0.0046  0.2293  0.0062 </r>
        <r>  0.0008  0.2442  0.0020 </r>
       </set>
       <set comment="band 4">
        <r>  0.0000  0.2497  0.0066 </r>
        <r>  0.0000  0.2718  0.0016 </r>
       </set>
       <set comment="band 5">
        <r>  0.1211  0.0690  0.0379 </r>
        <r>  0.0226  0.0930  0.0336 </r>
       </set>
       <set comment="band 6">
        <r>  0.0461  0.1466  0.0413 </r>
        <r>  0.0492  0.0716  0.0336 </r>
       </set>
       <set comment="band 7">
        <r>  0.0354  0.2520  0.0381 </r>
        <r>  0.0245  0.1686  0.0513 </r>
       </set>
       <set comment="band 8">
        <r>  0.0000  0.2924  0.0529 </r>
        <r>  0.0000  0.1761  0.0691 </r>
       </set>
      </set>
      <set comment="kpoint 20">
       <set comment="band 1">
        <r>  0.0233  0.0693  0.0106 </r>
        <r>  0.5588  0.0010  0.0002 </r>
       </set>
       <set comment="band 2">
        <r>  0.5485  0.0086  0.0011 </r>
        <r>  0.0149  0.1077  0.0044 </r>
       </set>
       <set comment="band 3">
        <r>  0.0000  0.2132  0.0055 </r>
        <r>  0.0002  0.2243  0.0014 </r>
       </set>
       <set comment="band 4">
        <r>  0.0000  0.2485  0.0089 </r>
        <r>  0.0000  0.2784  0.0022 </r>
       </set>
       <set comment="band 5">
        <r>  0.1066  0.0958  0.0368 </r>
        <r>  0.0387  0.0785  0.0329 </r>
       </set>
       <set comment="band 6">
        <r>  0.0629  0.1312  0.0414 </r>
        <r>  0.0280  0.1484  0.0377 </r>
       </set>
       <set comment="band 7">
        <r>  0.0443  0.2751  0.0193 </r>
        <r>  0.0328  0.1409  0.0374 </r>
       </set>
       <set comment="band 8">
        <r>  0.0000  0.2853  0.0482 </r>
        <r>  0.0000  0.1623  0.0636 </r>
       </set>
      </set>
      <set comment="kpoint 21">
       <set comment="band 1">
        <r>  0.0000  0.0776  0.0106 </r>
        <r>  0.5723  0.0000  0.0002 </r>
       </set>
       <set comment="band 2">
        <r>  0.5574  0.0000  0.0017 </r>
        <r>  0.0000  0.1119  0.0037 </r>
       </set>
       <set comment="band 3">
        <r>  0.0000  0.2513  0.0048 </r>
        <r>  0.0000  0.2683  0.0010 </r>
       </set>
       <set comment="band 4">
        <r>  0.0000  0.2513  0.0048 </r>
        <r>  0.0000  0.2683  0.0010 </r>
       </set>
       <set comment="band 5">
        <r>  0.1752  0.0000  0.0401 </r>
        <r>  0.0000  0.1235  0.0340 </r>
       </set>
       <set comment="band 6">
        <r>  0.0000  0.1863  0.0405 </r>
        <r>  0.0746  0.0000  0.0331 </r>
       </set>
       <set comment="band 7">
        <r>  0.0000  0.3633  0.0290 </r>
        <r>  0.0000  0.2268  0.0486 </r>
       </set>
       <set comment="band 8">
        <r>  0.0000  0.3633  0.0290 </r>
        <r>  0.0000  0.2268  0.0486 </r>
       </set>
      </set>
      <set comment="kpoint 22">
       <set comment="band 1">
        <r>  0.1847  0.0241  0.0030 </r>
        <r>  0.4129  0.0062  0.0002 </r>
       </set>
       <set comment="band 2">
        <r>  0.3437  0.0647  0.0117 </r>
        <r>  0.1478  0.1205  0.0041 </r>
       </set>
       <set comment="band 3">
        <r>  0.0165  0.2140  0.0134 </r>
        <r>  0.0035  0.2483  0.0046 </r>
       </set>
       <set comment="band 4">
        <r>  0.0089  0.2247  0.0213 </r>
        <r>  0.0048  0.2972  0.0054 </r>
       </set>
       <set comment="band 5">
        <r>  0.1998  0.0144  0.0358 </r>
        <r>  0.0146  0.2487  0.0178 </r>
       </set>
       <set comment="band 6">
        <r>  0.0162  0.3629  0.0123 </r>
        <r>  0.1009  0.0161  0.0343 </r>
       </set>
       <set comment="band 7">
        <r>  0.0012  0.1557  0.0596 </r>
        <r>  0.0000  0.0876  0.0624 </r>
       </set>
       <set comment="band 8">
        <r>  0.0062  0.3006  0.0491 </r>
        <r>  0.0101  0.1408  0.0579 </r>
       </set>
      </set>
      <set comment="kpoint 23">
       <set comment="band 1">
        <r>  0.1370  0.0394  0.0058 </r>
        <r>  0.4576  0.0061  0.0004 </r>
       </set>
       <set comment="band 2">
        <r>  0.3932  0.0531  0.0055 </r>
        <r>  0.0993  0.1139  0.0036 </r>
       </set>
       <set comment="band 3">
        <r>  0.0308  0.2020  0.0102 </r>
        <r>  0.0121  0.2281  0.0033 </r>
       </set>
       <set comment="band 4">
        <r>  0.0045  0.2338  0.0161 </r>
        <r>  0.0020  0.2834  0.0045 </r>
       </set>
       <set comment="band 5">
        <r>  0.1745  0.0880  0.0282 </r>
        <r>  0.0531  0.1924  0.0195 </r>
       </set>
       <set comment="band 6">
        <r>  0.0151  0.2544  0.0352 </r>
        <r>  0.0400  0.0617  0.0459 </r>
       </set>
       <set comment="band 7">
        <r>  0.0173  0.1581  0.0503 </r>
        <r>  0.0095  0.1115  0.0529 </r>
       </set>
       <set comment="band 8">
        <r>  0.0072  0.2525  0.0642 </r>
        <r>  0.0152  0.1166  0.0651 </r>
       </set>
      </set>
      <set comment="kpoint 24">
       <set comment="band 1">
        <r>  0.0963  0.0494  0.0081 </r>
        <r>  0.5001  0.0034  0.0004 </r>
       </set>
       <set comment="band 2">
        <r>  0.4314  0.0455  0.0017 </r>
        <r>  0.0535  0.1147  0.0033 </r>
       </set>
       <set comment="band 3">
        <r>  0.0405  0.1949  0.0098 </r>
        <r>  0.0181  0.2215  0.0030 </r>
       </set>
       <set comment="band 4">
        <r>  0.0012  0.2382  0.0138 </r>
        <r>  0.0002  0.2789  0.0040 </r>
       </set>
       <set comment="band 5">
        <r>  0.1687  0.1052  0.0271 </r>
        <r>  0.0627  0.1747  0.0202 </r>
       </set>
       <set comment="band 6">
        <r>  0.0041  0.1970  0.0465 </r>
        <r>  0.0193  0.0584  0.0527 </r>
       </set>
       <set comment="band 7">
        <r>  0.0253  0.2144  0.0430 </r>
        <r>  0.0032  0.1700  0.0583 </r>
       </set>
       <set comment="band 8">
        <r>  0.0176  0.2788  0.0422 </r>
        <r>  0.0329  0.1131  0.0328 </r>
       </set>
      </set>
      <set comment="kpoint 25">
       <set comment="band 1">
        <r>  0.1054  0.0498  0.0069 </r>
        <r>  0.4804  0.0065  0.0003 </r>
       </set>
       <set comment="band 2">
        <r>  0.4531  0.0299  0.0060 </r>
        <r>  0.0918  0.1069  0.0041 </r>
       </set>
       <set comment="band 3">
        <r>  0.0112  0.2189  0.0083 </r>
        <r>  0.0026  0.2419  0.0024 </r>
       </set>
       <set comment="band 4">
        <r>  0.0015  0.2384  0.0094 </r>
        <r>  0.0004  0.2600  0.0033 </r>
       </set>
       <set comment="band 5">
        <r>  0.1328  0.0679  0.0373 </r>
        <r>  0.0041  0.1582  0.0335 </r>
       </set>
       <set comment="band 6">
        <r>  0.0383  0.1856  0.0371 </r>
        <r>  0.0711  0.0617  0.0305 </r>
       </set>
       <set comment="band 7">
        <r>  0.0230  0.2089  0.0527 </r>
        <r>  0.0225  0.1098  0.0580 </r>
       </set>
       <set comment="band 8">
        <r>  0.0065  0.3224  0.0448 </r>
        <r>  0.0055  0.1845  0.0603 </r>
       </set>
      </set>
      <set comment="kpoint 26">
       <set comment="band 1">
        <r>  0.0408  0.0650  0.0100 </r>
        <r>  0.5430  0.0023  0.0002 </r>
       </set>
       <set comment="band 2">
        <r>  0.5302  0.0138  0.0017 </r>
        <r>  0.0305  0.1066  0.0045 </r>
       </set>
       <set comment="band 3">
        <r>  0.0066  0.2085  0.0071 </r>
        <r>  0.0026  0.2276  0.0016 </r>
       </set>
       <set comment="band 4">
        <r>  0.0018  0.2375  0.0083 </r>
        <r>  0.0004  0.2530  0.0032 </r>
       </set>
       <set comment="band 5">
        <r>  0.1119  0.1007  0.0366 </r>
        <r>  0.0308  0.1341  0.0323 </r>
       </set>
       <set comment="band 6">
        <r>  0.0697  0.1408  0.0379 </r>
        <r>  0.0371  0.1577  0.0332 </r>
       </set>
       <set comment="band 7">
        <r>  0.0074  0.2140  0.0557 </r>
        <r>  0.0222  0.0740  0.0584 </r>
       </set>
       <set comment="band 8">
        <r>  0.0209  0.2664  0.0391 </r>
        <r>  0.0209  0.1359  0.0488 </r>
       </set>
      </set>
      <set comment="kpoint 27">
       <set comment="band 1">
        <r>  0.0707  0.0572  0.0089 </r>
        <r>  0.5177  0.0038  0.0003 </r>
       </set>
       <set comment="band 2">
        <r>  0.4969  0.0239  0.0026 </r>
        <r>  0.0537  0.1061  0.0044 </r>
       </set>
       <set comment="band 3">
        <r>  0.0059  0.2063  0.0068 </r>
        <r>  0.0025  0.2234  0.0016 </r>
       </set>
       <set comment="band 4">
        <r>  0.0037  0.2352  0.0112 </r>
        <r>  0.0013  0.2619  0.0039 </r>
       </set>
       <set comment="band 5">
        <r>  0.1342  0.1011  0.0332 </r>
        <r>  0.0407  0.1603  0.0274 </r>
       </set>
       <set comment="band 6">
        <r>  0.0378  0.2450  0.0334 </r>
        <r>  0.0284  0.0946  0.0519 </r>
       </set>
       <set comment="band 7">
        <r>  0.0289  0.1044  0.0547 </r>
        <r>  0.0216  0.1509  0.0409 </r>
       </set>
       <set comment="band 8">
        <r>  0.0162  0.3016  0.0404 </r>
        <r>  0.0281  0.1014  0.0453 </r>
       </set>
      </set>
      <set comment="kpoint 28">
       <set comment="band 1">
        <r>  0.0000  0.0761  0.0111 </r>
        <r>  0.5755  0.0000  0.0001 </r>
       </set>
       <set comment="band 2">
        <r>  0.5702  0.0001  0.0011 </r>
        <r>  0.0000  0.1091  0.0043 </r>
       </set>
       <set comment="band 3">
        <r>  0.0057  0.2116  0.0095 </r>
        <r>  0.0000  0.2528  0.0008 </r>
       </set>
       <set comment="band 4">
        <r>  0.0000  0.2508  0.0028 </r>
        <r>  0.0010  0.2374  0.0032 </r>
       </set>
       <set comment="band 5">
        <r>  0.1584  0.0403  0.0353 </r>
        <r>  0.0000  0.1585  0.0358 </r>
       </set>
       <set comment="band 6">
        <r>  0.0000  0.1900  0.0458 </r>
        <r>  0.0673  0.0412  0.0324 </r>
       </set>
       <set comment="band 7">
        <r>  0.0480  0.2372  0.0280 </r>
        <r>  0.0000  0.1470  0.0758 </r>
       </set>
       <set comment="band 8">
        <r>  0.0000  0.2478  0.0619 </r>
        <r>  0.0364  0.1569  0.0343 </r>
       </set>
      </set>
      <set comment="kpoint 29">
       <set comment="band 1">
        <r>  0.0000  0.0747  0.0116 </r>
        <r>  0.5788  0.0000  0.0000 </r>
       </set>
       <set comment="band 2">
        <r>  0.5857  0.0000  0.0003 </r>
        <r>  0.0000  0.1056  0.0050 </r>
       </set>
       <set comment="band 3">
        <r>  0.0000  0.1898  0.0124 </r>
        <r>  0.0000  0.2466  0.0000 </r>
       </set>
       <set comment="band 4">
        <r>  0.0000  0.2515  0.0009 </r>
        <r>  0.0000  0.2180  0.0044 </r>
       </set>
       <set comment="band 5">
        <r>  0.2048  0.0000  0.0224 </r>
        <r>  0.0000  0.2911  0.0288 </r>
       </set>
       <set comment="band 6">
        <r>  0.0000  0.0134  0.0871 </r>
        <r>  0.0000  0.1904  0.0433 </r>
       </set>
       <set comment="band 7">
        <r>  0.0000  0.3892  0.0276 </r>
        <r>  0.1109  0.0000  0.0253 </r>
       </set>
       <set comment="band 8">
        <r>  0.0000  0.2671  0.0484 </r>
        <r>  0.0000  0.0000  0.0812 </r>
       </set>
      </set>
     </set>
    </set>
   </array>
  </projected>
 </calculation>
 <structure name="finalpos" >
  <crystal>
   <varray name="basis" >
    <v>       0.00000000       3.11158425       3.11158425 </v>
    <v>       3.11158425       0.00000000       3.11158425 </v>
    <v>       3.11158425       3.11158425       0.00000000 </v>
   </varray>
   <i name="volume">     60.25244687 </i>
   <varray name="rec_basis" >
    <v>      -0.16068985       0.16068985       0.16068985 </v>
    <v>       0.16068985      -0.16068985       0.16068985 </v>
    <v>       0.16068985       0.16068985      -0.16068985 </v>
   </varray>
  </crystal>
  <varray name="positions" >
   <v>       0.00000000       0.00000000       0.00000000 </v>
   <v>       0.25000000       0.25000000       0.25000000 </v>
  </varray>
 </structure>
</modeling>
