GaSb                                    
           1
     0.000000    3.111584    3.111584
     3.111584    0.000000    3.111584
     3.111584    3.111584    0.000000
   Ga   Sb
   1   1
Direct configuration=     1
   0.00000000  0.00000000  0.00000000
   0.25000000  0.25000000  0.25000000
