   2   2   1   0
  0.2390157E+02  0.4073714E-09  0.4073714E-09  0.4073714E-09  0.5000000E-15
  1.000000000000000E-004
  CAR 
 GaAs                                    
     12.79451289    -11.10428812   11      2.37612933      1.00000000
    -11.104  0.0000E+00  0.0000E+00
     -8.714  0.8265E-03  0.6941E-02
     -6.325  0.0000E+00  0.2000E-01
     -3.935  0.8560E-03  0.2386E-01
     -1.545  0.0000E+00  0.3822E-01
      0.845  0.0000E+00  0.6861E-01
      3.235  0.9184E-04  0.8025E-01
      5.625  0.2833E-03  0.1030E+00
      8.015  0.1378E-03  0.1322E+00
     10.405  0.0000E+00  0.1577E+00
     12.795  0.0000E+00  0.1600E+00
     12.79451289    -11.10428812   11      2.37612933      1.00000000
    -11.104  0.0000E+00  0.0000E+00  0.0000E+00
     -8.714  0.1137E-01  0.3372E-02  0.5767E-03
     -6.325  0.0000E+00  0.0000E+00  0.0000E+00
     -3.935  0.4189E-01  0.2814E-02  0.1515E-03
     -1.545  0.0000E+00  0.0000E+00  0.0000E+00
      0.845  0.0000E+00  0.0000E+00  0.0000E+00
      3.235  0.2682E-02  0.7733E-03  0.1770E-03
      5.625  0.2712E-02  0.5190E-02  0.8631E-03
      8.015  0.1620E-02  0.4722E-03  0.3951E-03
     10.405  0.0000E+00  0.0000E+00  0.0000E+00
     12.795  0.0000E+00  0.0000E+00  0.0000E+00
     12.79451289    -11.10428812   11      2.37612933      1.00000000
    -11.104  0.0000E+00  0.0000E+00  0.0000E+00
     -8.714  0.4150E-01  0.3710E-03  0.2556E-04
     -6.325  0.0000E+00  0.0000E+00  0.0000E+00
     -3.935  0.1744E-02  0.1227E-01  0.4111E-03
     -1.545  0.0000E+00  0.0000E+00  0.0000E+00
      0.845  0.0000E+00  0.0000E+00  0.0000E+00
      3.235  0.1284E-02  0.4741E-03  0.1966E-03
      5.625  0.2316E-02  0.3844E-02  0.6611E-03
      8.015  0.1175E-04  0.4468E-02  0.4911E-03
     10.405  0.0000E+00  0.0000E+00  0.0000E+00
     12.795  0.0000E+00  0.0000E+00  0.0000E+00
