    2    2  100    1
  0.2390157E+02  0.4073714E-09  0.4073714E-09  0.4073714E-09  0.5000000E-15
  1.000000000000000E-004
  CAR 
 GaAs                                    
      8     35      8
 
  0.0000000E+00  0.0000000E+00  0.0000000E+00  0.1371742E-02
    1      -10.017979   1.000000
    2        2.294641   1.000000
    3        2.294641   1.000000
    4        2.294641   1.000000
    5        2.451582   0.000000
    6        6.040704   0.000000
    7        6.040704   0.000000
    8        6.040704   0.000000
 
  0.1111111E+00 -0.1840888E-17  0.1481767E-17  0.1097394E-01
    1       -9.894229   1.000000
    2        0.542921   1.000000
    3        2.120514   1.000000
    4        2.120514   1.000000
    5        3.597553   0.000000
    6        6.304238   0.000000
    7        6.304238   0.000000
    8        6.309319   0.000000
 
  0.2222222E+00 -0.1580637E-16 -0.4899705E-17  0.1097394E-01
    1       -9.541317   1.000000
    2       -1.303389   1.000000
    3        1.762814   1.000000
    4        1.762814   1.000000
    5        3.669122   0.000000
    6        6.776693   0.000000
    7        6.776693   0.000000
    8        7.589411   0.000000
 
  0.3333333E+00  0.1143990E-18 -0.1191763E-17  0.1097394E-01
    1       -9.035786   1.000000
    2       -2.880345   1.000000
    3        1.443052   1.000000
    4        1.443053   1.000000
    5        3.386410   0.000000
    6        6.972639   0.000000
    7        6.972639   0.000000
    8        9.283931   0.000000
 
  0.4444444E+00 -0.3161274E-16 -0.9799411E-17  0.1097394E-01
    1       -8.595811   1.000000
    2       -3.874975   1.000000
    3        1.265842   1.000000
    4        1.265842   1.000000
    5        3.202469   0.000000
    6        6.944222   0.000000
    7        6.944222   0.000000
    8        9.982930   0.000000
 
  0.1111111E+00  0.1111111E+00 -0.1958065E-17  0.8230453E-02
    1       -9.852596   1.000000
    2        0.469413   1.000000
    3        1.801252   1.000000
    4        1.801253   1.000000
    5        4.197744   0.000000
    6        5.509619   0.000000
    7        6.764329   0.000000
    8        6.764329   0.000000
 
  0.2222222E+00  0.1111111E+00  0.2065355E-17  0.3292181E-01
    1       -9.574231   1.000000
    2       -0.910747   1.000000
    3        1.392628   1.000000
    4        1.409547   1.000000
    5        4.578773   0.000000
    6        5.638342   0.000000
    7        7.397820   0.000000
    8        7.544695   0.000000
 
  0.3333333E+00  0.1111111E+00 -0.5617948E-17  0.3292181E-01
    1       -9.111230   1.000000
    2       -2.445729   1.000000
    3        0.922299   1.000000
    4        1.094841   1.000000
    5        4.374485   0.000000
    6        6.325491   0.000000
    7        7.676835   0.000000
    8        8.226155   0.000000
 
  0.4444444E+00  0.1111111E+00  0.1021459E-16  0.3292181E-01
    1       -8.620864   1.000000
    2       -3.608836   1.000000
    3        0.515942   1.000000
    4        0.989017   1.000000
    5        4.155443   0.000000
    6        6.599482   0.000000
    7        7.546371   0.000000
    8        9.401039   0.000000
 
 -0.4444444E+00  0.1111111E+00 -0.6846867E-17  0.3292181E-01
    1       -8.446425   1.000000
    2       -3.954688   1.000000
    3        0.298842   1.000000
    4        1.090967   1.000000
    5        4.082385   0.000000
    6        6.731950   0.000000
    7        7.333800   0.000000
    8       10.218268   0.000000
 
 -0.3333333E+00  0.1111111E+00 -0.1100216E-16  0.3292181E-01
    1       -8.772840   1.000000
    2       -3.280891   1.000000
    3        0.319201   1.000000
    4        1.374666   1.000000
    5        4.176277   0.000000
    6        6.949535   0.000000
    7        7.150780   0.000000
    8        9.308230   0.000000
 
 -0.2222222E+00  0.1111111E+00  0.4735203E-18  0.3292181E-01
    1       -9.282563   1.000000
    2       -1.960919   1.000000
    3        0.616807   1.000000
    4        1.764695   1.000000
    5        4.361895   0.000000
    6        6.839870   0.000000
    7        6.877082   0.000000
    8        8.046876   0.000000
 
 -0.1111111E+00  0.1111111E+00 -0.3681776E-17  0.1646091E-01
    1       -9.693156   1.000000
    2       -0.488988   1.000000
    3        1.268430   1.000000
    4        2.096105   1.000000
    5        4.239998   0.000000
    6        6.229130   0.000000
    7        6.395403   0.000000
    8        7.373408   0.000000
 
  0.2222222E+00  0.2222222E+00 -0.3916130E-17  0.8230453E-02
    1       -9.375372   1.000000
    2       -1.330899   1.000000
    3        0.940068   1.000000
    4        0.940068   1.000000
    5        4.491233   0.000000
    6        5.456597   0.000000
    7        8.299229   0.000000
    8        8.299229   0.000000
 
  0.3333333E+00  0.2222222E+00  0.4528155E-19  0.3292181E-01
    1       -8.980130   1.000000
    2       -2.373654   1.000000
    3        0.371328   1.000000
    4        0.614794   1.000000
    5        4.545592   0.000000
    6        5.579321   0.000000
    7        8.315429   0.000000
    8        8.895192   0.000000
 
  0.4444444E+00  0.2222222E+00 -0.1883839E-17  0.3292181E-01
    1       -8.502791   1.000000
    2       -3.391609   1.000000
    3       -0.310992   1.000000
    4        0.503826   1.000000
    5        4.581741   0.000000
    6        6.511721   0.000000
    7        8.142452   0.000000
    8        8.864176   0.000000
 
 -0.4444444E+00  0.2222222E+00 -0.1894530E-16  0.3292181E-01
    1       -8.215942   1.000000
    2       -3.902856   1.000000
    3       -0.781124   1.000000
    4        0.626968   1.000000
    5        4.614323   0.000000
    6        7.176730   0.000000
    7        8.532429   0.000000
    8        9.063816   0.000000
 
 -0.3333333E+00  0.2222222E+00  0.1687508E-16  0.3292181E-01
    1       -8.391602   1.000000
    2       -3.591775   1.000000
    3       -0.889558   1.000000
    4        0.956804   1.000000
    5        4.793194   0.000000
    6        7.373879   0.000000
    7        8.107036   0.000000
    8        9.128049   0.000000
 
 -0.2222222E+00  0.2222222E+00  0.8362926E-17  0.1646091E-01
    1       -8.849944   1.000000
    2       -2.765366   1.000000
    3       -0.470898   1.000000
    4        1.403239   1.000000
    5        4.917262   0.000000
    6        7.444390   0.000000
    7        7.476724   0.000000
    8        7.819422   0.000000
 
  0.3333333E+00  0.3333333E+00 -0.5874195E-17  0.8230453E-02
    1       -8.666617   1.000000
    2       -2.933698   1.000000
    3        0.243330   1.000000
    4        0.243330   1.000000
    5        3.947513   0.000000
    6        4.931969   0.000000
    7       10.071340   0.000000
    8       10.071340   0.000000
 
  0.4444444E+00  0.3333333E+00 -0.1597306E-17  0.3292181E-01
    1       -8.263022   1.000000
    2       -3.624605   1.000000
    3       -0.335217   1.000000
    4        0.086638   1.000000
    5        4.132608   0.000000
    6        5.012121   0.000000
    7        9.857624   0.000000
    8       10.480655   0.000000
 
 -0.4444444E+00  0.3333333E+00 -0.1115139E-16  0.3292181E-01
    1       -7.979745   1.000000
    2       -4.005924   1.000000
    3       -1.072049   1.000000
    4        0.175810   1.000000
    5        4.276687   0.000000
    6        6.403092   0.000000
    7        9.561529   0.000000
    8       10.122282   0.000000
 
 -0.3333333E+00  0.3333333E+00  0.2287981E-18  0.1646091E-01
    1       -8.046791   1.000000
    2       -3.902219   1.000000
    3       -1.377489   1.000000
    4        0.492578   1.000000
    5        4.547016   0.000000
    6        7.948457   0.000000
    7        9.294751   0.000000
    8        9.553203   0.000000
 
  0.4444444E+00  0.4444444E+00 -0.7832259E-17  0.8230453E-02
    1       -7.994888   1.000000
    2       -4.060135   1.000000
    3       -0.128963   1.000000
    4       -0.128963   1.000000
    5        3.808108   0.000000
    6        4.178209   0.000000
    7       11.708204   0.000000
    8       11.708204   0.000000
 
 -0.4444444E+00  0.4444444E+00  0.1672585E-16  0.1646091E-01
    1       -7.869996   1.000000
    2       -4.200567   1.000000
    3       -0.579092   1.000000
    4       -0.097157   1.000000
    5        4.003563   0.000000
    6        4.699924   0.000000
    7       11.277269   0.000000
    8       11.501408   0.000000
 
  0.3333333E+00  0.2222222E+00  0.1111111E+00  0.3292181E-01
    1       -9.236484   1.000000
    2       -1.860476   1.000000
    3        0.388546   1.000000
    4        1.306787   1.000000
    5        5.069920   0.000000
    6        5.658380   0.000000
    7        7.733135   0.000000
    8        8.044256   0.000000
 
  0.4444444E+00  0.2222222E+00  0.1111111E+00  0.6584362E-01
    1       -8.757444   1.000000
    2       -2.984628   1.000000
    3       -0.231775   1.000000
    4        0.955466   1.000000
    5        5.083671   0.000000
    6        6.345073   0.000000
    7        7.688823   0.000000
    8        8.609728   0.000000
 
 -0.4444444E+00  0.2222222E+00  0.1111111E+00  0.6584362E-01
    1       -8.347234   1.000000
    2       -3.795169   1.000000
    3       -0.487706   1.000000
    4        0.693866   1.000000
    5        4.975052   0.000000
    6        6.496704   0.000000
    7        8.203174   0.000000
    8        9.395277   0.000000
 
  0.4444444E+00  0.3333333E+00  0.1111111E+00  0.3292181E-01
    1       -8.571116   1.000000
    2       -3.125564   1.000000
    3       -0.269836   1.000000
    4        0.311934   1.000000
    5        4.858603   0.000000
    6        5.498539   0.000000
    7        8.204151   0.000000
    8        9.985985   0.000000
 
 -0.4444444E+00  0.3333333E+00  0.1111111E+00  0.6584362E-01
    1       -8.165769   1.000000
    2       -3.761578   1.000000
    3       -0.853881   1.000000
    4        0.068134   1.000000
    5        5.122285   0.000000
    6        6.506494   0.000000
    7        7.882736   0.000000
    8       10.213079   0.000000
 
 -0.3333333E+00  0.3333333E+00  0.1111111E+00  0.6584362E-01
    1       -8.046387   1.000000
    2       -3.923319   1.000000
    3       -1.183353   1.000000
    4        0.159190   1.000000
    5        5.291018   0.000000
    6        7.204008   0.000000
    7        8.363392   0.000000
    8        9.581140   0.000000
 
 -0.2222222E+00  0.3333333E+00  0.1111111E+00  0.3292181E-01
    1       -8.325686   1.000000
    2       -3.539772   1.000000
    3       -1.027546   1.000000
    4        0.524047   1.000000
    5        5.507109   0.000000
    6        6.994628   0.000000
    7        7.459678   0.000000
    8        9.739106   0.000000
 
 -0.4444444E+00  0.4444444E+00  0.1111111E+00  0.3292181E-01
    1       -7.964770   1.000000
    2       -4.028574   1.000000
    3       -0.544315   1.000000
    4       -0.336026   1.000000
    5        4.683231   0.000000
    6        4.959787   0.000000
    7        9.740499   0.000000
    8       11.169435   0.000000
 
 -0.3333333E+00  0.4444444E+00  0.1111111E+00  0.3292181E-01
    1       -7.871888   1.000000
    2       -4.087530   1.000000
    3       -1.099268   1.000000
    4       -0.263110   1.000000
    5        4.982255   0.000000
    6        6.426129   0.000000
    7        9.234019   0.000000
    8        9.555345   0.000000
 
 -0.3333333E+00  0.4444444E+00  0.2222222E+00  0.3292181E-01
    1       -7.905709   1.000000
    2       -4.004105   1.000000
    3       -1.082640   1.000000
    4       -0.489947   1.000000
    5        6.373345   0.000000
    6        6.709855   0.000000
    7        7.533695   0.000000
    8        9.163511   0.000000
