Thu Aug 23 17:05:56 -03 2018
----------------
PBS job running on: halfbeast
in directory:       /home/users/fbonani/TCC/wurtzite/GaAs/minimizacao
cpus: 5
gpus: 
nodefile:
halfbeast.fiscomp
halfbeast.fiscomp
halfbeast.fiscomp
halfbeast.fiscomp
halfbeast.fiscomp
----------------
 running on   10 total cores
 distrk:  each k-point on   10 cores,    1 groups
 distr:  one band on    5 cores,    2 groups
 using from now: INCAR     
 vasp.5.4.4.18Apr17-6-g9f103f2a35 (build Apr 10 2018 17:34:00) complex          
  
 POSCAR found type information on POSCAR  Ga As
 POSCAR found :  2 types and       4 ions
 scaLAPACK will be used
 LDA part: xc-table for Pade appr. of Perdew
 generate k-points for:    9    9    4
 POSCAR, INCAR and KPOINTS ok, starting setup
 FFT: planning ...
 WAVECAR not read
 entering main loop
       N       E                     dE             d eps       ncg     rms          rms(c)
DAV:   1     0.511150324016E+02    0.51115E+02   -0.52405E+03   864   0.898E+02
DAV:   2    -0.130387717774E+02   -0.64154E+02   -0.59865E+02  1192   0.141E+02
DAV:   3    -0.168010378031E+02   -0.37623E+01   -0.37213E+01  1092   0.383E+01
DAV:   4    -0.168518440924E+02   -0.50806E-01   -0.50753E-01  1004   0.486E+00
DAV:   5    -0.168527108630E+02   -0.86677E-03   -0.86651E-03  1120   0.569E-01
DAV:   6    -0.168527330832E+02   -0.22220E-04   -0.22214E-04  1052   0.789E-02
DAV:   7    -0.168527340101E+02   -0.92690E-06   -0.92657E-06  1108   0.127E-02
DAV:   8    -0.168527340563E+02   -0.46191E-07   -0.46221E-07   860   0.225E-03    0.508E+00
DAV:   9    -0.166621932131E+02    0.19054E+00   -0.14605E-01   972   0.198E+00    0.395E+00
DAV:  10    -0.165429030858E+02    0.11929E+00   -0.57526E-01  1064   0.395E+00    0.139E+00
DAV:  11    -0.165280491370E+02    0.14854E-01   -0.64681E-02   912   0.158E+00    0.174E-01
DAV:  12    -0.165284082151E+02   -0.35908E-03   -0.30155E-03   968   0.377E-01    0.109E-01
DAV:  13    -0.165284229717E+02   -0.14757E-04   -0.34980E-04  1060   0.992E-02    0.635E-02
DAV:  14    -0.165284347039E+02   -0.11732E-04   -0.15065E-04   996   0.718E-02    0.144E-02
DAV:  15    -0.165284388484E+02   -0.41445E-05   -0.24480E-05  1100   0.274E-02    0.122E-02
DAV:  16    -0.165284363939E+02    0.24544E-05   -0.51115E-06  1052   0.130E-02    0.468E-03
DAV:  17    -0.165284362527E+02    0.14128E-06   -0.50795E-07  1000   0.416E-03    0.224E-03
DAV:  18    -0.165284360509E+02    0.20175E-06   -0.14777E-07   684   0.234E-03    0.665E-04
DAV:  19    -0.165284360236E+02    0.27263E-07   -0.67253E-08   536   0.136E-03
   1 F= -.16528436E+02 E0= -.16528436E+02  d E =-.165284E+02
 curvature:   0.00 expect dE= 0.000E+00 dE for cont linesearch  0.000E+00
 trial: gam= 0.00000 g(F)=  0.148E-06 g(S)=  0.112E-06 ort = 0.000E+00 (trialstep = 0.100E+01)
 search vector abs. value=  0.260E-06
 reached required accuracy - stopping structural energy minimisation
Thu Aug 23 17:06:03 -03 2018
