       N       E                     dE             d eps       ncg     rms          rms(c)
DAV:   1     0.141452598630E+02    0.14145E+02   -0.31192E+03   560   0.708E+02
DAV:   2    -0.792907759821E+01   -0.22074E+02   -0.21579E+02   784   0.899E+01
DAV:   3    -0.844268447094E+01   -0.51361E+00   -0.51361E+00   688   0.176E+01
DAV:   4    -0.844402724506E+01   -0.13428E-02   -0.13428E-02   856   0.994E-01
DAV:   5    -0.844402772341E+01   -0.47834E-06   -0.47834E-06   640   0.178E-02
DAV:   6    -0.844402772471E+01   -0.13071E-08   -0.13071E-08   864   0.639E-04
DAV:   7    -0.844402772472E+01   -0.12164E-10   -0.12087E-10   648   0.220E-05
DAV:   8    -0.844402772472E+01   -0.22737E-12   -0.25055E-12   576   0.197E-06    0.359E+00
DAV:   9    -0.835085183363E+01    0.93176E-01   -0.10788E-01   608   0.148E+00    0.280E+00
DAV:  10    -0.829150468373E+01    0.59347E-01   -0.33973E-01   664   0.272E+00    0.111E+00
DAV:  11    -0.828593347402E+01    0.55712E-02   -0.31356E-02   616   0.106E+00    0.113E-01
DAV:  12    -0.828606271258E+01   -0.12924E-03   -0.96506E-04   712   0.249E-01    0.721E-02
DAV:  13    -0.828609002912E+01   -0.27317E-04   -0.16021E-04   776   0.609E-02    0.393E-02
DAV:  14    -0.828609621634E+01   -0.61872E-05   -0.87195E-05   632   0.455E-02    0.123E-02
DAV:  15    -0.828609941413E+01   -0.31978E-05   -0.74701E-06   744   0.186E-02    0.818E-03
DAV:  16    -0.828609830891E+01    0.11052E-05   -0.19264E-06   640   0.760E-03    0.227E-03
DAV:  17    -0.828609834586E+01   -0.36956E-07   -0.15984E-07   416   0.213E-03
   1 F= -.82860983E+01 E0= -.82860983E+01  d E =-.828610E+01
