PROCAR new format
# of k-points:   35         # of bands:    8         # of ions:    2

 k-point     1 :    0.00000000 0.00000000 0.00000000     weight = 0.00137174

band     1 # energy  -10.01797898 # occ.  2.00000000
 
ion      s      p      d    tot
    1  0.234  0.000  0.000  0.234
    2  0.428  0.000  0.000  0.428
tot    0.662  0.000  0.000  0.662
 
band     2 # energy    2.29464083 # occ.  2.00000000
 
ion      s      p      d    tot
    1  0.000  0.127  0.071  0.198
    2  0.000  0.455  0.005  0.459
tot    0.000  0.582  0.076  0.657
 
band     3 # energy    2.29464084 # occ.  2.00000000
 
ion      s      p      d    tot
    1  0.000  0.127  0.071  0.198
    2  0.000  0.455  0.005  0.459
tot    0.000  0.582  0.076  0.657
 
band     4 # energy    2.29464113 # occ.  2.00000000
 
ion      s      p      d    tot
    1  0.000  0.127  0.071  0.198
    2  0.000  0.455  0.005  0.459
tot    0.000  0.582  0.076  0.657
 
band     5 # energy    2.45158178 # occ.  0.00000000
 
ion      s      p      d    tot
    1  0.459  0.000  0.000  0.459
    2  0.345  0.000  0.000  0.345
tot    0.804  0.000  0.000  0.804
 
band     6 # energy    6.04070418 # occ.  0.00000000
 
ion      s      p      d    tot
    1  0.000  0.479  0.011  0.491
    2  0.000  0.038  0.063  0.101
tot    0.000  0.518  0.074  0.592
 
band     7 # energy    6.04070421 # occ.  0.00000000
 
ion      s      p      d    tot
    1  0.000  0.479  0.011  0.491
    2  0.000  0.038  0.063  0.101
tot    0.000  0.518  0.074  0.592
 
band     8 # energy    6.04070423 # occ.  0.00000000
 
ion      s      p      d    tot
    1  0.000  0.479  0.011  0.491
    2  0.000  0.038  0.063  0.101
tot    0.000  0.518  0.074  0.592
 

 k-point     2 :    0.11111111-0.00000000 0.00000000     weight = 0.01097394

band     1 # energy   -9.89422896 # occ.  2.00000000
 
ion      s      p      d    tot
    1  0.226  0.004  0.000  0.231
    2  0.433  0.001  0.000  0.434
tot    0.659  0.005  0.001  0.665
 
band     2 # energy    0.54292062 # occ.  2.00000000
 
ion      s      p      d    tot
    1  0.216  0.089  0.034  0.340
    2  0.145  0.216  0.004  0.366
tot    0.362  0.305  0.039  0.706
 
band     3 # energy    2.12051399 # occ.  2.00000000
 
ion      s      p      d    tot
    1  0.000  0.150  0.063  0.213
    2  0.000  0.435  0.005  0.440
tot    0.000  0.585  0.068  0.653
 
band     4 # energy    2.12051424 # occ.  2.00000000
 
ion      s      p      d    tot
    1  0.000  0.150  0.063  0.213
    2  0.000  0.435  0.005  0.440
tot    0.000  0.585  0.068  0.653
 
band     5 # energy    3.59755315 # occ.  0.00000000
 
ion      s      p      d    tot
    1  0.259  0.089  0.016  0.364
    2  0.176  0.169  0.005  0.350
tot    0.435  0.258  0.021  0.714
 
band     6 # energy    6.30423757 # occ.  0.00000000
 
ion      s      p      d    tot
    1  0.000  0.458  0.019  0.476
    2  0.000  0.058  0.062  0.120
tot    0.000  0.516  0.080  0.596
 
band     7 # energy    6.30423759 # occ.  0.00000000
 
ion      s      p      d    tot
    1  0.000  0.458  0.019  0.476
    2  0.000  0.058  0.062  0.120
tot    0.000  0.516  0.080  0.596
 
band     8 # energy    6.30931873 # occ.  0.00000000
 
ion      s      p      d    tot
    1  0.031  0.341  0.028  0.400
    2  0.022  0.102  0.050  0.175
tot    0.053  0.443  0.079  0.575
 

 k-point     3 :    0.22222222-0.00000000-0.00000000     weight = 0.01097394

band     1 # energy   -9.54131683 # occ.  2.00000000
 
ion      s      p      d    tot
    1  0.203  0.015  0.002  0.220
    2  0.449  0.003  0.000  0.452
tot    0.652  0.018  0.002  0.672
 
band     2 # energy   -1.30338853 # occ.  2.00000000
 
ion      s      p      d    tot
    1  0.244  0.101  0.022  0.367
    2  0.124  0.184  0.004  0.311
tot    0.368  0.284  0.026  0.679
 
band     3 # energy    1.76281378 # occ.  2.00000000
 
ion      s      p      d    tot
    1  0.000  0.188  0.049  0.236
    2  0.000  0.405  0.005  0.410
tot    0.000  0.593  0.054  0.647
 
band     4 # energy    1.76281401 # occ.  2.00000000
 
ion      s      p      d    tot
    1  0.000  0.188  0.049  0.236
    2  0.000  0.405  0.005  0.410
tot    0.000  0.593  0.054  0.647
 
band     5 # energy    3.66912216 # occ.  0.00000000
 
ion      s      p      d    tot
    1  0.264  0.125  0.009  0.398
    2  0.144  0.088  0.016  0.248
tot    0.407  0.213  0.025  0.646
 
band     6 # energy    6.77669307 # occ.  0.00000000
 
ion      s      p      d    tot
    1  0.000  0.407  0.035  0.442
    2  0.000  0.081  0.061  0.143
tot    0.000  0.488  0.096  0.584
 
band     7 # energy    6.77669309 # occ.  0.00000000
 
ion      s      p      d    tot
    1  0.000  0.407  0.035  0.442
    2  0.000  0.081  0.061  0.143
tot    0.000  0.488  0.096  0.584
 
band     8 # energy    7.58941099 # occ.  0.00000000
 
ion      s      p      d    tot
    1  0.066  0.186  0.038  0.289
    2  0.055  0.213  0.029  0.298
tot    0.121  0.399  0.067  0.587
 

 k-point     4 :    0.33333333 0.00000000-0.00000000     weight = 0.01097394

band     1 # energy   -9.03578629 # occ.  2.00000000
 
ion      s      p      d    tot
    1  0.164  0.031  0.005  0.200
    2  0.482  0.004  0.000  0.486
tot    0.646  0.035  0.006  0.686
 
band     2 # energy   -2.88034544 # occ.  2.00000000
 
ion      s      p      d    tot
    1  0.288  0.098  0.010  0.397
    2  0.087  0.163  0.003  0.253
tot    0.375  0.262  0.013  0.650
 
band     3 # energy    1.44305233 # occ.  2.00000000
 
ion      s      p      d    tot
    1  0.000  0.215  0.038  0.252
    2  0.000  0.387  0.004  0.392
tot    0.000  0.602  0.042  0.644
 
band     4 # energy    1.44305254 # occ.  2.00000000
 
ion      s      p      d    tot
    1  0.000  0.215  0.038  0.252
    2  0.000  0.387  0.004  0.392
tot    0.000  0.602  0.042  0.644
 
band     5 # energy    3.38640998 # occ.  0.00000000
 
ion      s      p      d    tot
    1  0.280  0.103  0.015  0.398
    2  0.138  0.060  0.020  0.219
tot    0.419  0.163  0.035  0.617
 
band     6 # energy    6.97263897 # occ.  0.00000000
 
ion      s      p      d    tot
    1  0.000  0.336  0.056  0.392
    2  0.000  0.078  0.064  0.142
tot    0.000  0.414  0.120  0.534
 
band     7 # energy    6.97263899 # occ.  0.00000000
 
ion      s      p      d    tot
    1  0.000  0.336  0.056  0.392
    2  0.000  0.078  0.064  0.142
tot    0.000  0.414  0.120  0.534
 
band     8 # energy    9.28393077 # occ.  0.00000000
 
ion      s      p      d    tot
    1  0.040  0.137  0.040  0.217
    2  0.039  0.276  0.016  0.331
tot    0.078  0.414  0.055  0.548
 

 k-point     5 :    0.44444444-0.00000000-0.00000000     weight = 0.01097394

band     1 # energy   -8.59581099 # occ.  2.00000000
 
ion      s      p      d    tot
    1  0.120  0.044  0.009  0.173
    2  0.526  0.002  0.001  0.529
tot    0.646  0.046  0.010  0.702
 
band     2 # energy   -3.87497472 # occ.  2.00000000
 
ion      s      p      d    tot
    1  0.335  0.090  0.002  0.427
    2  0.041  0.156  0.002  0.199
tot    0.376  0.246  0.004  0.626
 
band     3 # energy    1.26584212 # occ.  2.00000000
 
ion      s      p      d    tot
    1  0.000  0.228  0.032  0.260
    2  0.000  0.380  0.004  0.384
tot    0.000  0.608  0.036  0.643
 
band     4 # energy    1.26584233 # occ.  2.00000000
 
ion      s      p      d    tot
    1  0.000  0.228  0.032  0.260
    2  0.000  0.380  0.004  0.384
tot    0.000  0.608  0.036  0.643
 
band     5 # energy    3.20246931 # occ.  0.00000000
 
ion      s      p      d    tot
    1  0.292  0.084  0.019  0.396
    2  0.140  0.052  0.021  0.213
tot    0.432  0.136  0.041  0.608
 
band     6 # energy    6.94422189 # occ.  0.00000000
 
ion      s      p      d    tot
    1  0.000  0.292  0.069  0.361
    2  0.000  0.069  0.066  0.135
tot    0.000  0.361  0.135  0.496
 
band     7 # energy    6.94422191 # occ.  0.00000000
 
ion      s      p      d    tot
    1  0.000  0.292  0.069  0.361
    2  0.000  0.069  0.066  0.135
tot    0.000  0.361  0.135  0.496
 
band     8 # energy    9.98293012 # occ.  0.00000000
 
ion      s      p      d    tot
    1  0.001  0.070  0.048  0.119
    2  0.002  0.149  0.004  0.155
tot    0.003  0.218  0.052  0.274
 

 k-point     6 :    0.11111111 0.11111111-0.00000000     weight = 0.00823045

band     1 # energy   -9.85259591 # occ.  2.00000000
 
ion      s      p      d    tot
    1  0.224  0.005  0.001  0.230
    2  0.435  0.001  0.000  0.436
tot    0.658  0.007  0.001  0.665
 
band     2 # energy    0.46941264 # occ.  2.00000000
 
ion      s      p      d    tot
    1  0.257  0.065  0.035  0.357
    2  0.170  0.198  0.004  0.373
tot    0.428  0.263  0.039  0.730
 
band     3 # energy    1.80125240 # occ.  2.00000000
 
ion      s      p      d    tot
    1  0.000  0.177  0.053  0.230
    2  0.000  0.401  0.006  0.407
tot    0.000  0.578  0.059  0.637
 
band     4 # energy    1.80125257 # occ.  2.00000000
 
ion      s      p      d    tot
    1  0.000  0.177  0.053  0.230
    2  0.000  0.401  0.006  0.407
tot    0.000  0.578  0.059  0.637
 
band     5 # energy    4.19774393 # occ.  0.00000000
 
ion      s      p      d    tot
    1  0.242  0.033  0.032  0.307
    2  0.142  0.276  0.000  0.418
tot    0.383  0.309  0.033  0.725
 
band     6 # energy    5.50961941 # occ.  0.00000000
 
ion      s      p      d    tot
    1  0.015  0.419  0.010  0.443
    2  0.028  0.011  0.053  0.092
tot    0.043  0.429  0.063  0.535
 
band     7 # energy    6.76432904 # occ.  0.00000000
 
ion      s      p      d    tot
    1  0.000  0.427  0.029  0.456
    2  0.000  0.094  0.062  0.156
tot    0.000  0.522  0.091  0.613
 
band     8 # energy    6.76432905 # occ.  0.00000000
 
ion      s      p      d    tot
    1  0.000  0.427  0.029  0.456
    2  0.000  0.094  0.062  0.156
tot    0.000  0.522  0.091  0.613
 

 k-point     7 :    0.22222222 0.11111111 0.00000000     weight = 0.03292181

band     1 # energy   -9.57423062 # occ.  2.00000000
 
ion      s      p      d    tot
    1  0.205  0.014  0.002  0.222
    2  0.447  0.003  0.000  0.450
tot    0.652  0.017  0.002  0.671
 
band     2 # energy   -0.91074741 # occ.  2.00000000
 
ion      s      p      d    tot
    1  0.268  0.081  0.027  0.376
    2  0.145  0.182  0.004  0.332
tot    0.414  0.263  0.031  0.708
 
band     3 # energy    1.39262839 # occ.  2.00000000
 
ion      s      p      d    tot
    1  0.000  0.207  0.041  0.248
    2  0.000  0.373  0.006  0.379
tot    0.000  0.580  0.046  0.626
 
band     4 # energy    1.40954667 # occ.  2.00000000
 
ion      s      p      d    tot
    1  0.026  0.190  0.041  0.257
    2  0.012  0.353  0.006  0.372
tot    0.038  0.544  0.047  0.628
 
band     5 # energy    4.57877313 # occ.  0.00000000
 
ion      s      p      d    tot
    1  0.233  0.065  0.029  0.327
    2  0.094  0.234  0.011  0.339
tot    0.327  0.299  0.040  0.666
 
band     6 # energy    5.63834194 # occ.  0.00000000
 
ion      s      p      d    tot
    1  0.022  0.377  0.015  0.414
    2  0.053  0.039  0.045  0.136
tot    0.074  0.416  0.060  0.550
 
band     7 # energy    7.39782030 # occ.  0.00000000
 
ion      s      p      d    tot
    1  0.000  0.389  0.042  0.431
    2  0.000  0.121  0.062  0.183
tot    0.000  0.510  0.104  0.615
 
band     8 # energy    7.54469510 # occ.  0.00000000
 
ion      s      p      d    tot
    1  0.015  0.305  0.045  0.365
    2  0.013  0.148  0.054  0.214
tot    0.027  0.453  0.099  0.580
 

 k-point     8 :    0.33333333 0.11111111-0.00000000     weight = 0.03292181

band     1 # energy   -9.11123029 # occ.  2.00000000
 
ion      s      p      d    tot
    1  0.170  0.029  0.005  0.204
    2  0.474  0.004  0.000  0.479
tot    0.645  0.033  0.005  0.683
 
band     2 # energy   -2.44572906 # occ.  2.00000000
 
ion      s      p      d    tot
    1  0.298  0.088  0.015  0.401
    2  0.107  0.164  0.004  0.275
tot    0.405  0.253  0.018  0.676
 
band     3 # energy    0.92229865 # occ.  2.00000000
 
ion      s      p      d    tot
    1  0.050  0.196  0.031  0.277
    2  0.021  0.313  0.006  0.340
tot    0.071  0.509  0.037  0.617
 
band     4 # energy    1.09484062 # occ.  2.00000000
 
ion      s      p      d    tot
    1  0.000  0.227  0.032  0.259
    2  0.000  0.361  0.005  0.365
tot    0.000  0.588  0.036  0.624
 
band     5 # energy    4.37448479 # occ.  0.00000000
 
ion      s      p      d    tot
    1  0.210  0.107  0.028  0.345
    2  0.092  0.174  0.018  0.285
tot    0.302  0.281  0.046  0.630
 
band     6 # energy    6.32549143 # occ.  0.00000000
 
ion      s      p      d    tot
    1  0.026  0.334  0.033  0.393
    2  0.027  0.073  0.048  0.148
tot    0.054  0.406  0.081  0.541
 
band     7 # energy    7.67683499 # occ.  0.00000000
 
ion      s      p      d    tot
    1  0.000  0.332  0.060  0.392
    2  0.000  0.115  0.065  0.180
tot    0.000  0.447  0.125  0.572
 
band     8 # energy    8.22615497 # occ.  0.00000000
 
ion      s      p      d    tot
    1  0.023  0.150  0.070  0.243
    2  0.021  0.154  0.048  0.223
tot    0.044  0.303  0.119  0.466
 

 k-point     9 :    0.44444444 0.11111111 0.00000000     weight = 0.03292181

band     1 # energy   -8.62086423 # occ.  2.00000000
 
ion      s      p      d    tot
    1  0.122  0.045  0.008  0.176
    2  0.519  0.003  0.000  0.523
tot    0.642  0.048  0.009  0.699
 
band     2 # energy   -3.60883622 # occ.  2.00000000
 
ion      s      p      d    tot
    1  0.345  0.083  0.004  0.433
    2  0.057  0.155  0.003  0.214
tot    0.402  0.238  0.007  0.647
 
band     3 # energy    0.51594231 # occ.  2.00000000
 
ion      s      p      d    tot
    1  0.060  0.200  0.025  0.285
    2  0.024  0.293  0.006  0.323
tot    0.084  0.493  0.031  0.608
 
band     4 # energy    0.98901657 # occ.  2.00000000
 
ion      s      p      d    tot
    1  0.000  0.237  0.027  0.264
    2  0.000  0.360  0.004  0.364
tot    0.000  0.596  0.031  0.628
 
band     5 # energy    4.15544338 # occ.  0.00000000
 
ion      s      p      d    tot
    1  0.215  0.111  0.028  0.354
    2  0.097  0.149  0.020  0.266
tot    0.312  0.260  0.048  0.620
 
band     6 # energy    6.59948166 # occ.  0.00000000
 
ion      s      p      d    tot
    1  0.013  0.261  0.058  0.332
    2  0.011  0.071  0.055  0.137
tot    0.024  0.333  0.113  0.470
 
band     7 # energy    7.54637090 # occ.  0.00000000
 
ion      s      p      d    tot
    1  0.000  0.287  0.073  0.360
    2  0.000  0.095  0.067  0.162
tot    0.000  0.382  0.140  0.522
 
band     8 # energy    9.40103905 # occ.  0.00000000
 
ion      s      p      d    tot
    1  0.018  0.154  0.065  0.236
    2  0.015  0.189  0.038  0.242
tot    0.033  0.342  0.103  0.478
 

 k-point    10 :   -0.44444444 0.11111111-0.00000000     weight = 0.03292181

band     1 # energy   -8.44642535 # occ.  2.00000000
 
ion      s      p      d    tot
    1  0.101  0.050  0.010  0.162
    2  0.542  0.002  0.001  0.544
tot    0.643  0.052  0.011  0.706
 
band     2 # energy   -3.95468775 # occ.  2.00000000
 
ion      s      p      d    tot
    1  0.366  0.080  0.001  0.447
    2  0.033  0.153  0.003  0.189
tot    0.399  0.234  0.003  0.637
 
band     3 # energy    0.29884214 # occ.  2.00000000
 
ion      s      p      d    tot
    1  0.059  0.204  0.022  0.286
    2  0.024  0.286  0.005  0.315
tot    0.083  0.491  0.027  0.601
 
band     4 # energy    1.09096714 # occ.  2.00000000
 
ion      s      p      d    tot
    1  0.000  0.235  0.028  0.264
    2  0.000  0.368  0.004  0.372
tot    0.000  0.603  0.032  0.635
 
band     5 # energy    4.08238475 # occ.  0.00000000
 
ion      s      p      d    tot
    1  0.223  0.112  0.026  0.361
    2  0.102  0.137  0.021  0.259
tot    0.324  0.249  0.047  0.621
 
band     6 # energy    6.73194976 # occ.  0.00000000
 
ion      s      p      d    tot
    1  0.009  0.230  0.067  0.306
    2  0.007  0.074  0.057  0.139
tot    0.016  0.304  0.125  0.444
 
band     7 # energy    7.33379992 # occ.  0.00000000
 
ion      s      p      d    tot
    1  0.000  0.284  0.072  0.356
    2  0.000  0.083  0.066  0.149
tot    0.000  0.367  0.138  0.505
 
band     8 # energy   10.21826835 # occ.  0.00000000
 
ion      s      p      d    tot
    1  0.007  0.145  0.050  0.202
    2  0.003  0.234  0.016  0.253
tot    0.010  0.379  0.066  0.455
 

 k-point    11 :   -0.33333333 0.11111111-0.00000000     weight = 0.03292181

band     1 # energy   -8.77283990 # occ.  2.00000000
 
ion      s      p      d    tot
    1  0.139  0.040  0.007  0.186
    2  0.503  0.004  0.000  0.508
tot    0.642  0.043  0.007  0.693
 
band     2 # energy   -3.28089059 # occ.  2.00000000
 
ion      s      p      d    tot
    1  0.329  0.086  0.007  0.422
    2  0.074  0.157  0.003  0.234
tot    0.402  0.243  0.010  0.656
 
band     3 # energy    0.31920132 # occ.  2.00000000
 
ion      s      p      d    tot
    1  0.049  0.209  0.023  0.281
    2  0.019  0.289  0.005  0.313
tot    0.068  0.498  0.028  0.594
 
band     4 # energy    1.37466638 # occ.  2.00000000
 
ion      s      p      d    tot
    1  0.000  0.221  0.035  0.256
    2  0.000  0.384  0.004  0.389
tot    0.000  0.606  0.039  0.645
 
band     5 # energy    4.17627659 # occ.  0.00000000
 
ion      s      p      d    tot
    1  0.226  0.120  0.023  0.368
    2  0.105  0.137  0.020  0.261
tot    0.331  0.257  0.042  0.630
 
band     6 # energy    6.94953541 # occ.  0.00000000
 
ion      s      p      d    tot
    1  0.009  0.246  0.065  0.320
    2  0.008  0.085  0.058  0.150
tot    0.016  0.331  0.123  0.470
 
band     7 # energy    7.15078030 # occ.  0.00000000
 
ion      s      p      d    tot
    1  0.000  0.328  0.057  0.385
    2  0.000  0.080  0.063  0.143
tot    0.000  0.408  0.120  0.528
 
band     8 # energy    9.30822998 # occ.  0.00000000
 
ion      s      p      d    tot
    1  0.034  0.146  0.047  0.227
    2  0.027  0.243  0.027  0.298
tot    0.061  0.389  0.075  0.525
 

 k-point    12 :   -0.22222222 0.11111111 0.00000000     weight = 0.03292181

band     1 # energy   -9.28256263 # occ.  2.00000000
 
ion      s      p      d    tot
    1  0.184  0.023  0.003  0.211
    2  0.463  0.004  0.000  0.467
tot    0.647  0.027  0.004  0.678
 
band     2 # energy   -1.96091889 # occ.  2.00000000
 
ion      s      p      d    tot
    1  0.284  0.089  0.018  0.392
    2  0.121  0.169  0.004  0.294
tot    0.405  0.259  0.022  0.686
 
band     3 # energy    0.61680684 # occ.  2.00000000
 
ion      s      p      d    tot
    1  0.032  0.212  0.027  0.271
    2  0.009  0.306  0.006  0.321
tot    0.041  0.518  0.033  0.592
 
band     4 # energy    1.76469456 # occ.  2.00000000
 
ion      s      p      d    tot
    1  0.000  0.194  0.047  0.240
    2  0.000  0.410  0.005  0.415
tot    0.000  0.604  0.051  0.655
 
band     5 # energy    4.36189476 # occ.  0.00000000
 
ion      s      p      d    tot
    1  0.229  0.129  0.016  0.375
    2  0.113  0.152  0.016  0.281
tot    0.343  0.281  0.032  0.656
 
band     6 # energy    6.83987002 # occ.  0.00000000
 
ion      s      p      d    tot
    1  0.000  0.404  0.034  0.439
    2  0.000  0.074  0.059  0.133
tot    0.000  0.478  0.094  0.572
 
band     7 # energy    6.87708177 # occ.  0.00000000
 
ion      s      p      d    tot
    1  0.026  0.284  0.050  0.361
    2  0.025  0.107  0.051  0.184
tot    0.051  0.392  0.102  0.545
 
band     8 # energy    8.04687550 # occ.  0.00000000
 
ion      s      p      d    tot
    1  0.031  0.183  0.048  0.262
    2  0.027  0.194  0.040  0.261
tot    0.058  0.377  0.088  0.523
 

 k-point    13 :   -0.11111111 0.11111111-0.00000000     weight = 0.01646091

band     1 # energy   -9.69315579 # occ.  2.00000000
 
ion      s      p      d    tot
    1  0.213  0.010  0.001  0.225
    2  0.441  0.002  0.000  0.444
tot    0.655  0.013  0.001  0.669
 
band     2 # energy   -0.48898769 # occ.  2.00000000
 
ion      s      p      d    tot
    1  0.251  0.085  0.029  0.365
    2  0.148  0.191  0.004  0.343
tot    0.400  0.275  0.033  0.708
 
band     3 # energy    1.26843046 # occ.  2.00000000
 
ion      s      p      d    tot
    1  0.011  0.202  0.039  0.252
    2  0.001  0.349  0.007  0.357
tot    0.012  0.550  0.046  0.609
 
band     4 # energy    2.09610478 # occ.  2.00000000
 
ion      s      p      d    tot
    1  0.000  0.159  0.060  0.219
    2  0.000  0.437  0.005  0.442
tot    0.000  0.596  0.064  0.661
 
band     5 # energy    4.23999807 # occ.  0.00000000
 
ion      s      p      d    tot
    1  0.243  0.108  0.014  0.365
    2  0.142  0.186  0.008  0.336
tot    0.385  0.294  0.022  0.701
 
band     6 # energy    6.22912981 # occ.  0.00000000
 
ion      s      p      d    tot
    1  0.033  0.304  0.037  0.374
    2  0.028  0.093  0.049  0.170
tot    0.060  0.398  0.086  0.544
 
band     7 # energy    6.39540325 # occ.  0.00000000
 
ion      s      p      d    tot
    1  0.000  0.454  0.020  0.473
    2  0.000  0.054  0.060  0.114
tot    0.000  0.508  0.080  0.588
 
band     8 # energy    7.37340774 # occ.  0.00000000
 
ion      s      p      d    tot
    1  0.011  0.338  0.038  0.387
    2  0.013  0.154  0.053  0.220
tot    0.024  0.491  0.091  0.607
 

 k-point    14 :    0.22222222 0.22222222-0.00000000     weight = 0.00823045

band     1 # energy   -9.37537208 # occ.  2.00000000
 
ion      s      p      d    tot
    1  0.191  0.021  0.003  0.215
    2  0.456  0.004  0.000  0.460
tot    0.647  0.025  0.003  0.675
 
band     2 # energy   -1.33089946 # occ.  2.00000000
 
ion      s      p      d    tot
    1  0.323  0.054  0.027  0.404
    2  0.157  0.166  0.005  0.327
tot    0.480  0.220  0.031  0.732
 
band     3 # energy    0.94006774 # occ.  2.00000000
 
ion      s      p      d    tot
    1  0.000  0.229  0.030  0.259
    2  0.000  0.348  0.005  0.353
tot    0.000  0.577  0.035  0.612
 
band     4 # energy    0.94006788 # occ.  2.00000000
 
ion      s      p      d    tot
    1  0.000  0.229  0.030  0.259
    2  0.000  0.348  0.005  0.353
tot    0.000  0.577  0.035  0.612
 
band     5 # energy    4.49123348 # occ.  0.00000000
 
ion      s      p      d    tot
    1  0.156  0.151  0.036  0.343
    2  0.002  0.103  0.039  0.144
tot    0.157  0.255  0.075  0.487
 
band     6 # energy    5.45659736 # occ.  0.00000000
 
ion      s      p      d    tot
    1  0.096  0.204  0.019  0.319
    2  0.121  0.158  0.014  0.294
tot    0.217  0.363  0.033  0.613
 
band     7 # energy    8.29922874 # occ.  0.00000000
 
ion      s      p      d    tot
    1  0.000  0.370  0.050  0.420
    2  0.000  0.155  0.063  0.218
tot    0.000  0.525  0.113  0.638
 
band     8 # energy    8.29922879 # occ.  0.00000000
 
ion      s      p      d    tot
    1  0.000  0.370  0.050  0.420
    2  0.000  0.155  0.063  0.218
tot    0.000  0.525  0.113  0.638
 

 k-point    15 :    0.33333333 0.22222222 0.00000000     weight = 0.03292181

band     1 # energy   -8.98013012 # occ.  2.00000000
 
ion      s      p      d    tot
    1  0.158  0.035  0.005  0.198
    2  0.481  0.005  0.000  0.487
tot    0.639  0.040  0.005  0.684
 
band     2 # energy   -2.37365438 # occ.  2.00000000
 
ion      s      p      d    tot
    1  0.358  0.055  0.019  0.432
    2  0.127  0.155  0.005  0.286
tot    0.485  0.210  0.023  0.718
 
band     3 # energy    0.37132753 # occ.  2.00000000
 
ion      s      p      d    tot
    1  0.020  0.229  0.022  0.271
    2  0.006  0.306  0.005  0.317
tot    0.026  0.536  0.027  0.588
 
band     4 # energy    0.61479412 # occ.  2.00000000
 
ion      s      p      d    tot
    1  0.000  0.244  0.023  0.267
    2  0.000  0.336  0.004  0.339
tot    0.000  0.580  0.026  0.606
 
band     5 # energy    4.54559164 # occ.  0.00000000
 
ion      s      p      d    tot
    1  0.134  0.141  0.043  0.318
    2  0.015  0.112  0.038  0.164
tot    0.149  0.253  0.081  0.482
 
band     6 # energy    5.57932060 # occ.  0.00000000
 
ion      s      p      d    tot
    1  0.098  0.178  0.031  0.306
    2  0.083  0.138  0.023  0.244
tot    0.180  0.316  0.054  0.550
 
band     7 # energy    8.31542925 # occ.  0.00000000
 
ion      s      p      d    tot
    1  0.010  0.223  0.077  0.310
    2  0.019  0.110  0.061  0.190
tot    0.029  0.334  0.138  0.501
 
band     8 # energy    8.89519248 # occ.  0.00000000
 
ion      s      p      d    tot
    1  0.000  0.333  0.062  0.396
    2  0.000  0.159  0.065  0.224
tot    0.000  0.493  0.128  0.620
 

 k-point    16 :    0.44444444 0.22222222-0.00000000     weight = 0.03292181

band     1 # energy   -8.50279089 # occ.  2.00000000
 
ion      s      p      d    tot
    1  0.107  0.052  0.009  0.168
    2  0.526  0.004  0.000  0.531
tot    0.633  0.056  0.009  0.699
 
band     2 # energy   -3.39160949 # occ.  2.00000000
 
ion      s      p      d    tot
    1  0.406  0.053  0.008  0.468
    2  0.074  0.148  0.004  0.226
tot    0.480  0.201  0.012  0.694
 
band     3 # energy   -0.31099221 # occ.  2.00000000
 
ion      s      p      d    tot
    1  0.041  0.218  0.017  0.275
    2  0.013  0.269  0.004  0.286
tot    0.054  0.487  0.021  0.562
 
band     4 # energy    0.50382594 # occ.  2.00000000
 
ion      s      p      d    tot
    1  0.000  0.251  0.019  0.270
    2  0.000  0.334  0.003  0.337
tot    0.000  0.585  0.022  0.608
 
band     5 # energy    4.58174052 # occ.  0.00000000
 
ion      s      p      d    tot
    1  0.132  0.127  0.046  0.305
    2  0.043  0.109  0.033  0.186
tot    0.176  0.237  0.079  0.491
 
band     6 # energy    6.51172074 # occ.  0.00000000
 
ion      s      p      d    tot
    1  0.102  0.159  0.035  0.296
    2  0.043  0.192  0.029  0.264
tot    0.144  0.352  0.063  0.560
 
band     7 # energy    8.14245157 # occ.  0.00000000
 
ion      s      p      d    tot
    1  0.003  0.206  0.085  0.294
    2  0.028  0.071  0.059  0.158
tot    0.031  0.277  0.144  0.453
 
band     8 # energy    8.86417599 # occ.  0.00000000
 
ion      s      p      d    tot
    1  0.000  0.285  0.076  0.361
    2  0.000  0.137  0.068  0.205
tot    0.000  0.422  0.145  0.566
 

 k-point    17 :   -0.44444444 0.22222222-0.00000000     weight = 0.03292181

band     1 # energy   -8.21594188 # occ.  2.00000000
 
ion      s      p      d    tot
    1  0.069  0.062  0.012  0.143
    2  0.565  0.002  0.000  0.568
tot    0.634  0.064  0.012  0.710
 
band     2 # energy   -3.90285623 # occ.  2.00000000
 
ion      s      p      d    tot
    1  0.445  0.050  0.002  0.497
    2  0.031  0.146  0.004  0.181
tot    0.476  0.196  0.006  0.678
 
band     3 # energy   -0.78112361 # occ.  2.00000000
 
ion      s      p      d    tot
    1  0.046  0.213  0.014  0.273
    2  0.015  0.253  0.004  0.272
tot    0.061  0.466  0.017  0.544
 
band     4 # energy    0.62696799 # occ.  2.00000000
 
ion      s      p      d    tot
    1  0.000  0.250  0.020  0.270
    2  0.000  0.341  0.003  0.345
tot    0.000  0.592  0.024  0.615
 
band     5 # energy    4.61432276 # occ.  0.00000000
 
ion      s      p      d    tot
    1  0.146  0.127  0.043  0.317
    2  0.056  0.105  0.032  0.192
tot    0.201  0.232  0.075  0.509
 
band     6 # energy    7.17672986 # occ.  0.00000000
 
ion      s      p      d    tot
    1  0.079  0.139  0.043  0.260
    2  0.027  0.203  0.037  0.267
tot    0.106  0.342  0.080  0.528
 
band     7 # energy    8.53242911 # occ.  0.00000000
 
ion      s      p      d    tot
    1  0.000  0.275  0.075  0.351
    2  0.000  0.121  0.067  0.188
tot    0.000  0.397  0.142  0.539
 
band     8 # energy    9.06381578 # occ.  0.00000000
 
ion      s      p      d    tot
    1  0.014  0.207  0.082  0.303
    2  0.026  0.117  0.049  0.192
tot    0.040  0.324  0.131  0.495
 

 k-point    18 :   -0.33333333 0.22222222 0.00000000     weight = 0.03292181

band     1 # energy   -8.39160161 # occ.  2.00000000
 
ion      s      p      d    tot
    1  0.094  0.054  0.010  0.159
    2  0.541  0.003  0.000  0.545
tot    0.636  0.058  0.011  0.704
 
band     2 # energy   -3.59177466 # occ.  2.00000000
 
ion      s      p      d    tot
    1  0.421  0.056  0.005  0.481
    2  0.057  0.146  0.005  0.207
tot    0.477  0.202  0.009  0.688
 
band     3 # energy   -0.88955803 # occ.  2.00000000
 
ion      s      p      d    tot
    1  0.037  0.218  0.013  0.267
    2  0.010  0.252  0.003  0.266
tot    0.047  0.470  0.016  0.533
 
band     4 # energy    0.95680351 # occ.  2.00000000
 
ion      s      p      d    tot
    1  0.000  0.240  0.026  0.266
    2  0.000  0.358  0.004  0.362
tot    0.000  0.598  0.030  0.628
 
band     5 # energy    4.79319412 # occ.  0.00000000
 
ion      s      p      d    tot
    1  0.167  0.137  0.036  0.340
    2  0.066  0.116  0.029  0.211
tot    0.233  0.253  0.065  0.551
 
band     6 # energy    7.37387908 # occ.  0.00000000
 
ion      s      p      d    tot
    1  0.053  0.144  0.051  0.249
    2  0.023  0.172  0.043  0.238
tot    0.076  0.316  0.094  0.486
 
band     7 # energy    8.10703591 # occ.  0.00000000
 
ion      s      p      d    tot
    1  0.000  0.316  0.059  0.375
    2  0.000  0.117  0.061  0.178
tot    0.000  0.433  0.120  0.553
 
band     8 # energy    9.12804928 # occ.  0.00000000
 
ion      s      p      d    tot
    1  0.040  0.164  0.061  0.266
    2  0.036  0.219  0.032  0.287
tot    0.076  0.384  0.093  0.553
 

 k-point    19 :   -0.22222222 0.22222222 0.00000000     weight = 0.01646091

band     1 # energy   -8.84994432 # occ.  2.00000000
 
ion      s      p      d    tot
    1  0.147  0.038  0.006  0.191
    2  0.494  0.005  0.000  0.499
tot    0.640  0.043  0.007  0.689
 
band     2 # energy   -2.76536605 # occ.  2.00000000
 
ion      s      p      d    tot
    1  0.358  0.068  0.013  0.439
    2  0.106  0.153  0.004  0.263
tot    0.464  0.220  0.017  0.702
 
band     3 # energy   -0.47089750 # occ.  2.00000000
 
ion      s      p      d    tot
    1  0.029  0.223  0.015  0.267
    2  0.003  0.265  0.005  0.273
tot    0.032  0.489  0.020  0.541
 
band     4 # energy    1.40323877 # occ.  2.00000000
 
ion      s      p      d    tot
    1  0.000  0.219  0.036  0.255
    2  0.000  0.384  0.005  0.389
tot    0.000  0.603  0.041  0.644
 
band     5 # energy    4.91726209 # occ.  0.00000000
 
ion      s      p      d    tot
    1  0.201  0.144  0.023  0.368