<?xml version="1.0" encoding="ISO-8859-1"?>
<modeling>
 <generator>
  <i name="program" type="string">vasp </i>
  <i name="version" type="string">5.4.4.18Apr17-6-g9f103f2a35  </i>
  <i name="subversion" type="string">(build Apr 10 2018 17:34:00) complex            parallel </i>
  <i name="platform" type="string">LinuxIFC </i>
  <i name="date" type="string">2018 10 04 </i>
  <i name="time" type="string">08:06:11 </i>
 </generator>
 <incar>
  <i type="string" name="SYSTEM"> GaAs</i>
  <i type="string" name="PREC">accurate  ! calcululation level (change</i>
  <i type="string" name="ALGO"> NORMAL    ! A Davidson blocked iteratio</i>
  <i type="logical" name="ADDGRID"> T  </i>
  <i type="int" name="ISPIN">     1</i>
  <i name="AMIX">      0.20000000</i>
  <i name="BMIX">      0.00100000</i>
  <i type="int" name="NELM">   100</i>
  <i type="int" name="NELMDL">    -8</i>
  <i type="int" name="NELMIN">     6</i>
  <i type="int" name="IBRION">     2</i>
  <i name="EDIFF">      0.00000010</i>
  <i name="EDIFFG">     -0.00100000</i>
  <i type="int" name="NSW">   100</i>
  <i type="int" name="ISIF">     3</i>
  <i name="ENCUT">    416.00000000</i>
  <i name="POTIM">      0.50000000</i>
  <i type="int" name="NEDOS">    11</i>
  <i type="logical" name="LREAL"> F  </i>
  <i type="logical" name="LPLANE"> T  </i>
  <i type="int" name="ISMEAR">     0</i>
  <i name="SIGMA">      0.01000000</i>
  <i type="int" name="NWRITE">     1</i>
  <i type="int" name="LMAXMIX">     6</i>
  <i type="logical" name="LWAVE"> F  </i>
  <i type="logical" name="LCHARG"> F  </i>
  <i type="int" name="LORBIT">    10</i>
  <i type="logical" name="LASPH"> T  </i>
  <v type="int" name="KPOINT_BSE">    -1     0     0     0</v>
  <i type="int" name="NELM">   100</i>
  <i type="logical" name="LASPH"> T  </i>
 </incar>
 <structure name="primitive_cell" >
  <crystal>
   <varray name="basis" >
    <v>       0.00000000       2.88055050       2.88055050 </v>
    <v>       2.88055050       0.00000000       2.88055050 </v>
    <v>       2.88055050       2.88055050       0.00000000 </v>
   </varray>
   <i name="volume">     47.80314583 </i>
   <varray name="rec_basis" >
    <v>      -0.17357793       0.17357793       0.17357793 </v>
    <v>       0.17357793      -0.17357793       0.17357793 </v>
    <v>       0.17357793       0.17357793      -0.17357793 </v>
   </varray>
  </crystal>
  <varray name="positions" >
   <v>       0.00000000       0.00000000       0.00000000 </v>
   <v>       0.25000000       0.25000000       0.25000000 </v>
  </varray>
 </structure>
 <varray name="primitive_index" >
  <v type="int" >        1 </v>
  <v type="int" >        2 </v>
 </varray>
 <kpoints>
  <generation param="Auto">
   <i name="subdivisionlength">     30.00000000 </i>
   <v type="int" name="divisions">       9        9        9 </v>
   <v name="usershift">      0.00000000       0.00000000       0.00000000 </v>
   <v name="genvec1">      0.11111111      -0.00000000       0.00000000 </v>
   <v name="genvec2">     -0.00000000       0.11111111      -0.00000000 </v>
   <v name="genvec3">      0.00000000       0.00000000       0.11111111 </v>
   <v name="shift">      0.00000000       0.00000000       0.00000000 </v>
  </generation>
  <varray name="kpointlist" >
   <v>       0.00000000       0.00000000       0.00000000 </v>
   <v>       0.11111111      -0.00000000       0.00000000 </v>
   <v>       0.22222222      -0.00000000      -0.00000000 </v>
   <v>       0.33333333       0.00000000      -0.00000000 </v>
   <v>       0.44444444      -0.00000000      -0.00000000 </v>
   <v>       0.11111111       0.11111111      -0.00000000 </v>
   <v>       0.22222222       0.11111111       0.00000000 </v>
   <v>       0.33333333       0.11111111      -0.00000000 </v>
   <v>       0.44444444       0.11111111       0.00000000 </v>
   <v>      -0.44444444       0.11111111      -0.00000000 </v>
   <v>      -0.33333333       0.11111111      -0.00000000 </v>
   <v>      -0.22222222       0.11111111       0.00000000 </v>
   <v>      -0.11111111       0.11111111      -0.00000000 </v>
   <v>       0.22222222       0.22222222      -0.00000000 </v>
   <v>       0.33333333       0.22222222       0.00000000 </v>
   <v>       0.44444444       0.22222222      -0.00000000 </v>
   <v>      -0.44444444       0.22222222      -0.00000000 </v>
   <v>      -0.33333333       0.22222222       0.00000000 </v>
   <v>      -0.22222222       0.22222222       0.00000000 </v>
   <v>       0.33333333       0.33333333      -0.00000000 </v>
   <v>       0.44444444       0.33333333      -0.00000000 </v>
   <v>      -0.44444444       0.33333333      -0.00000000 </v>
   <v>      -0.33333333       0.33333333       0.00000000 </v>
   <v>       0.44444444       0.44444444      -0.00000000 </v>
   <v>      -0.44444444       0.44444444       0.00000000 </v>
   <v>       0.33333333       0.22222222       0.11111111 </v>
   <v>       0.44444444       0.22222222       0.11111111 </v>
   <v>      -0.44444444       0.22222222       0.11111111 </v>
   <v>       0.44444444       0.33333333       0.11111111 </v>
   <v>      -0.44444444       0.33333333       0.11111111 </v>
   <v>      -0.33333333       0.33333333       0.11111111 </v>
   <v>      -0.22222222       0.33333333       0.11111111 </v>
   <v>      -0.44444444       0.44444444       0.11111111 </v>
   <v>      -0.33333333       0.44444444       0.11111111 </v>
   <v>      -0.33333333       0.44444444       0.22222222 </v>
  </varray>
  <varray name="weights" >
   <v>       0.00137174 </v>
   <v>       0.01097394 </v>
   <v>       0.01097394 </v>
   <v>       0.01097394 </v>
   <v>       0.01097394 </v>
   <v>       0.00823045 </v>
   <v>       0.03292181 </v>
   <v>       0.03292181 </v>
   <v>       0.03292181 </v>
   <v>       0.03292181 </v>
   <v>       0.03292181 </v>
   <v>       0.03292181 </v>
   <v>       0.01646091 </v>
   <v>       0.00823045 </v>
   <v>       0.03292181 </v>
   <v>       0.03292181 </v>
   <v>       0.03292181 </v>
   <v>       0.03292181 </v>
   <v>       0.01646091 </v>
   <v>       0.00823045 </v>
   <v>       0.03292181 </v>
   <v>       0.03292181 </v>
   <v>       0.01646091 </v>
   <v>       0.00823045 </v>
   <v>       0.01646091 </v>
   <v>       0.03292181 </v>
   <v>       0.06584362 </v>
   <v>       0.06584362 </v>
   <v>       0.03292181 </v>
   <v>       0.06584362 </v>
   <v>       0.06584362 </v>
   <v>       0.03292181 </v>
   <v>       0.03292181 </v>
   <v>       0.03292181 </v>
   <v>       0.03292181 </v>
  </varray>
 </kpoints>
 <parameters>
  <separator name="general" >
   <i type="string" name="SYSTEM">GaAs</i>
   <i type="logical" name="LCOMPAT"> F  </i>
  </separator>
  <separator name="electronic" >
   <i type="string" name="PREC">accura</i>
   <i name="ENMAX">    416.00000000</i>
   <i name="ENAUG">    462.75800000</i>
   <i name="EDIFF">      0.00000010</i>
   <i type="int" name="IALGO">    38</i>
   <i type="int" name="IWAVPR">    11</i>
   <i type="int" name="NBANDS">     8</i>
   <i name="NELECT">      8.00000000</i>
   <i type="int" name="TURBO">     0</i>
   <i type="int" name="IRESTART">     0</i>
   <i type="int" name="NREBOOT">     0</i>
   <i type="int" name="NMIN">     0</i>
   <i name="EREF">      0.00000000</i>
   <separator name="electronic smearing" >
    <i type="int" name="ISMEAR">     0</i>
    <i name="SIGMA">      0.01000000</i>
    <i name="KSPACING">      0.50000000</i>
    <i type="logical" name="KGAMMA"> T  </i>
   </separator>
   <separator name="electronic projectors" >
    <i type="logical" name="LREAL"> F  </i>
    <v name="ROPT">      0.00000000      0.00000000</v>
    <i type="int" name="LMAXPAW">  -100</i>
    <i type="int" name="LMAXMIX">     6</i>
    <i type="logical" name="NLSPLINE"> F  </i>
   </separator>
   <separator name="electronic startup" >
    <i type="int" name="ISTART">     0</i>
    <i type="int" name="ICHARG">     2</i>
    <i type="int" name="INIWAV">     1</i>
   </separator>
   <separator name="electronic spin" >
    <i type="int" name="ISPIN">     1</i>
    <i type="logical" name="LNONCOLLINEAR"> F  </i>
    <v name="MAGMOM">      1.00000000      1.00000000</v>
    <i name="NUPDOWN">     -1.00000000</i>
    <i type="logical" name="LSORBIT"> F  </i>
    <v name="SAXIS">      0.00000000      0.00000000      1.00000000</v>
    <i type="logical" name="LSPIRAL"> F  </i>
    <v name="QSPIRAL">      0.00000000      0.00000000      0.00000000</v>
    <i type="logical" name="LZEROZ"> F  </i>
   </separator>
   <separator name="electronic exchange-correlation" >
    <i type="logical" name="LASPH"> T  </i>
    <i type="logical" name="LMETAGGA"> F  </i>
   </separator>
   <separator name="electronic convergence" >
    <i type="int" name="NELM">   100</i>
    <i type="int" name="NELMDL">    -8</i>
    <i type="int" name="NELMIN">     6</i>
    <i name="ENINI">    416.00000000</i>
    <separator name="electronic convergence detail" >
     <i type="logical" name="LDIAG"> T  </i>
     <i type="logical" name="LSUBROT"> F  </i>
     <i name="WEIMIN">      0.00100000</i>
     <i name="EBREAK">      0.00000000</i>
     <i name="DEPER">      0.30000000</i>
     <i type="int" name="NRMM">     4</i>
     <i name="TIME">      0.40000000</i>
    </separator>
   </separator>
   <separator name="electronic mixer" >
    <i name="AMIX">      0.20000000</i>
    <i name="BMIX">      0.00100000</i>
    <i name="AMIN">      0.10000000</i>
    <i name="AMIX_MAG">      0.80000000</i>
    <i name="BMIX_MAG">      0.00100000</i>
    <separator name="electronic mixer details" >
     <i type="int" name="IMIX">     4</i>
     <i type="logical" name="MIXFIRST"> F  </i>
     <i type="int" name="MAXMIX">   -45</i>
     <i name="WC">    100.00000000</i>
     <i type="int" name="INIMIX">     1</i>
     <i type="int" name="MIXPRE">     1</i>
     <i type="int" name="MREMOVE">     5</i>
    </separator>
   </separator>
   <separator name="electronic dipolcorrection" >
    <i type="logical" name="LDIPOL"> F  </i>
    <i type="logical" name="LMONO"> F  </i>
    <i type="int" name="IDIPOL">     0</i>
    <i name="EPSILON">      1.00000000</i>
    <v name="DIPOL">   -100.00000000   -100.00000000   -100.00000000</v>
    <i name="EFIELD">      0.00000000</i>
   </separator>
  </separator>
  <separator name="grids" >
   <i type="int" name="NGX">    28</i>
   <i type="int" name="NGY">    28</i>
   <i type="int" name="NGZ">    28</i>
   <i type="int" name="NGXF">    56</i>
   <i type="int" name="NGYF">    56</i>
   <i type="int" name="NGZF">    56</i>
   <i type="logical" name="ADDGRID"> T  </i>
  </separator>
  <separator name="ionic" >
   <i type="int" name="NSW">   100</i>
   <i type="int" name="IBRION">     2</i>
   <i type="int" name="MDALGO">     0</i>
   <i type="int" name="ISIF">     3</i>
   <i name="PSTRESS">      0.00000000</i>
   <i name="EDIFFG">     -0.00100000</i>
   <i type="int" name="NFREE">     1</i>
   <i name="POTIM">      0.50000000</i>
   <i name="SMASS">     -3.00000000</i>
   <i name="SCALEE">      1.00000000</i>
  </separator>
  <separator name="ionic md" >
   <i name="TEBEG">      0.00010000</i>
   <i name="TEEND">      0.00010000</i>
   <i type="int" name="NBLOCK">     1</i>
   <i type="int" name="KBLOCK">   100</i>
   <i type="int" name="NPACO">   256</i>
   <i name="APACO">     16.00000000</i>
  </separator>
  <separator name="symmetry" >
   <i type="int" name="ISYM">     2</i>
   <i name="SYMPREC">      0.00001000</i>
  </separator>
  <separator name="dos" >
   <i type="int" name="LORBIT">    10</i>
   <v name="RWIGS">     -1.00000000     -1.00000000</v>
   <i type="int" name="NEDOS">    11</i>
   <i name="EMIN">     10.00000000</i>
   <i name="EMAX">    -10.00000000</i>
   <i name="EFERMI">      0.00000000</i>
  </separator>
  <separator name="writing" >
   <i type="int" name="NWRITE">     1</i>
   <i type="logical" name="LWAVE"> F  </i>
   <i type="logical" name="LDOWNSAMPLE"> F  </i>
   <i type="logical" name="LCHARG"> F  </i>
   <i type="logical" name="LPARD"> F  </i>
   <i type="logical" name="LVTOT"> F  </i>
   <i type="logical" name="LVHAR"> F  </i>
   <i type="logical" name="LELF"> F  </i>
   <i type="logical" name="LOPTICS"> F  </i>
   <v name="STM">      0.00000000      0.00000000      0.00000000      0.00000000      0.00000000      0.00000000      0.00000000</v>
  </separator>
  <separator name="performance" >
   <i type="int" name="NPAR">     2</i>
   <i type="int" name="NSIM">     4</i>
   <i type="int" name="NBLK">    -1</i>
   <i type="logical" name="LPLANE"> T  </i>
   <i type="logical" name="LSCALAPACK"> T  </i>
   <i type="logical" name="LSCAAWARE"> F  </i>
   <i type="logical" name="LSCALU"> F  </i>
   <i type="logical" name="LASYNC"> F  </i>
   <i type="logical" name="LORBITALREAL"> F  </i>
  </separator>
  <separator name="miscellaneous" >
   <i type="int" name="IDIOT">     3</i>
   <i type="int" name="ISPECIAL">     0</i>
   <i type="logical" name="LMUSIC"> F  </i>
   <v name="POMASS">     69.72300000     74.92200000</v>
   <v name="DARWINR">      0.00000000      0.00000000</v>
   <v name="DARWINV">      1.00000000      1.00000000</v>
   <i type="logical" name="LCORR"> T  </i>
  </separator>
  <i type="logical" name="GGA_COMPAT"> T  </i>
  <i type="logical" name="LBERRY"> F  </i>
  <i type="int" name="ICORELEVEL">     0</i>
  <i type="logical" name="LDAU"> F  </i>
  <i type="int" name="I_CONSTRAINED_M">     0</i>
  <separator name="electronic exchange-correlation" >
   <i type="string" name="GGA">--</i>
   <i type="int" name="VOSKOWN">     0</i>
   <i type="logical" name="LHFCALC"> F  </i>
   <i type="string" name="PRECFOCK"></i>
   <i type="logical" name="LSYMGRAD"> F  </i>
   <i type="logical" name="LHFONE"> F  </i>
   <i type="logical" name="LRHFCALC"> F  </i>
   <i type="logical" name="LTHOMAS"> F  </i>
   <i type="logical" name="LMODELHF"> F  </i>
   <i name="ENCUT4O">     -1.00000000</i>
   <i type="int" name="EXXOEP">     0</i>
   <i type="int" name="FOURORBIT">     0</i>
   <i name="AEXX">      0.00000000</i>
   <i name="HFALPHA">      0.00000000</i>
   <i name="MCALPHA">      0.00000000</i>
   <i name="ALDAX">      1.00000000</i>
   <i name="AGGAX">      1.00000000</i>
   <i name="ALDAC">      1.00000000</i>
   <i name="AGGAC">      1.00000000</i>
   <i type="int" name="NKREDX">     1</i>
   <i type="int" name="NKREDY">     1</i>
   <i type="int" name="NKREDZ">     1</i>
   <i type="logical" name="SHIFTRED"> F  </i>
   <i type="logical" name="ODDONLY"> F  </i>
   <i type="logical" name="EVENONLY"> F  </i>
   <i type="int" name="LMAXFOCK">     0</i>
   <i type="int" name="NMAXFOCKAE">     0</i>
   <i type="logical" name="LFOCKAEDFT"> F  </i>
   <i name="HFSCREEN">      0.00000000</i>
   <i name="HFSCREENC">      0.00000000</i>
   <i type="int" name="NBANDSGWLOW">     0</i>
  </separator>
  <separator name="vdW DFT" >
   <i type="logical" name="LUSE_VDW"> F  </i>
   <i name="Zab_VDW">     -0.84910000</i>
   <i name="PARAM1">      0.12340000</i>
   <i name="PARAM2">      1.00000000</i>
   <i name="PARAM3">      0.00000000</i>
  </separator>
  <separator name="model GW" >
   <i type="int" name="MODEL_GW">     0</i>
   <i name="MODEL_EPS0">     14.34094375</i>
   <i name="MODEL_ALPHA">      1.00000000</i>
  </separator>
  <separator name="linear response parameters" >
   <i type="logical" name="LEPSILON"> F  </i>
   <i type="logical" name="LRPA"> F  </i>
   <i type="logical" name="LNABLA"> F  </i>
   <i type="logical" name="LVEL"> F  </i>
   <i type="int" name="KINTER">     0</i>
   <i name="CSHIFT">      0.10000000</i>
   <i name="OMEGAMAX">     -1.00000000</i>
   <i name="DEG_THRESHOLD">      0.00200000</i>
   <i name="RTIME">     -0.10000000</i>
   <i name="WPLASMAI">      0.00000000</i>
   <v name="DFIELD">      0.00000000      0.00000000      0.00000000</v>
   <v name="WPLASMA">      0.00000000      0.00000000      0.00000000      0.00000000      0.00000000      0.00000000      0.00000000      0.00000000      0.00000000</v>
  </separator>
  <separator name="orbital magnetization" >
   <i type="logical" name="NUCIND"> F  </i>
   <v name="MAGPOS">      0.00000000      0.00000000      0.00000000</v>
   <i type="logical" name="LNICSALL"> T  </i>
   <i type="logical" name="ORBITALMAG"> F  </i>
   <i type="logical" name="LMAGBLOCH"> F  </i>
   <i type="logical" name="LCHIMAG"> F  </i>
   <i type="logical" name="LGAUGE"> T  </i>
   <i type="int" name="MAGATOM">     0</i>
   <v name="MAGDIPOL">      0.00000000      0.00000000      0.00000000</v>
   <v name="AVECCONST">      0.00000000      0.00000000      0.00000000</v>
  </separator>
  <separator name="response functions" >
   <i type="logical" name="LADDER"> F  </i>
   <i type="logical" name="LRPAFORCE"> F  </i>
   <i type="logical" name="LFXC"> F  </i>
   <i type="logical" name="LHARTREE"> T  </i>
   <i type="int" name="IBSE">     0</i>
   <v type="int" name="KPOINT">    -1     0     0     0</v>
   <i type="logical" name="LTCTE"> F  </i>
   <i type="logical" name="LTETE"> F  </i>
   <i type="logical" name="LTRIPLET"> F  </i>
   <i type="logical" name="LFXCEPS"> F  </i>
   <i type="logical" name="LFXHEG"> F  </i>
   <i type="int" name="NATURALO">     2</i>
   <i type="logical" name="L2ORDER"> F  </i>
   <i type="logical" name="LMP2LT"> F  </i>
   <i type="logical" name="LUSEW"> F  </i>
   <i name="ENCUTGW">     -2.00000000</i>
   <i name="ENCUTGWSOFT">     -2.00000000</i>
   <i name="ENCUTLF">     -1.00000000</i>
   <i type="int" name="LMAXMP2">    -1</i>
   <i name="SCISSOR">      0.00000000</i>
   <i type="int" name="NOMEGA">     0</i>
   <i type="int" name="NOMEGAR">     0</i>
   <i type="int" name="NBANDSGW">    -1</i>
   <i type="int" name="NBANDSO">    -1</i>
   <i type="int" name="NBANDSV">    -1</i>
   <i type="int" name="NELM">   100</i>
   <i type="int" name="NELMHF">     1</i>
   <i type="int" name="DIM">     3</i>
   <i type="int" name="ANTIRES">     0</i>
   <i name="OMEGAMAX">    -30.00000000</i>
   <i name="OMEGAMIN">    -30.00000000</i>
   <i name="OMEGATL">   -200.00000000</i>
   <i type="int" name="OMEGAGRID">   140</i>
   <i name="CSHIFT">     -0.10000000</i>
   <i type="logical" name="SELFENERGY"> F  </i>
   <i type="logical" name="LSPECTRAL"> F  </i>
   <i type="logical" name="LSPECTRALGW"> F  </i>
   <i type="logical" name="LSINGLES"> F  </i>
   <i type="logical" name="LFERMIGW"> F  </i>
   <i type="logical" name="ODDONLYGW"> F  </i>
   <i type="logical" name="EVENONLYGW"> F  </i>
   <i type="int" name="NKREDLFX">     1</i>
   <i type="int" name="NKREDLFY">     1</i>
   <i type="int" name="NKREDLFZ">     1</i>
   <i type="int" name="MAXMEM">  2800</i>
   <i type="int" name="TELESCOPE">     0</i>
   <i type="int" name="TAUPAR">     1</i>
   <i type="int" name="OMEGAPAR">    -1</i>
   <i name="LAMBDA">      1.00000000</i>
  </separator>
  <separator name="External order field" >
   <i name="OFIELD_KAPPA">      0.00000000</i>
   <v name="OFIELD_K">      0.00000000      0.00000000      0.00000000</v>
   <i name="OFIELD_Q6_NEAR">      0.00000000</i>
   <i name="OFIELD_Q6_FAR">      0.00000000</i>
   <i name="OFIELD_A">      0.00000000</i>
  </separator>
 </parameters>
 <atominfo>
  <atoms>       2 </atoms>
  <types>       2 </types>
  <array name="atoms" >
   <dimension dim="1">ion</dimension>
   <field type="string">element</field>
   <field type="int">atomtype</field>
   <set>
    <rc><c>Ga</c><c>   1</c></rc>
    <rc><c>As</c><c>   2</c></rc>
   </set>
  </array>
  <array name="atomtypes" >
   <dimension dim="1">type</dimension>
   <field type="int">atomspertype</field>
   <field type="string">element</field>
   <field>mass</field>
   <field>valence</field>
   <field type="string">pseudopotential</field>
   <set>
    <rc><c>   1</c><c>Ga</c><c>     69.72300000</c><c>      3.00000000</c><c>  PAW_PBE Ga 08Apr2002                  </c></rc>
    <rc><c>   1</c><c>As</c><c>     74.92200000</c><c>      5.00000000</c><c>  PAW_PBE As 22Sep2009                  </c></rc>
   </set>
  </array>
 </atominfo>
 <structure name="initialpos" >
  <crystal>
   <varray name="basis" >
    <v>       0.00000000       2.88055050       2.88055050 </v>
    <v>       2.88055050       0.00000000       2.88055050 </v>
    <v>       2.88055050       2.88055050       0.00000000 </v>
   </varray>
   <i name="volume">     47.80314583 </i>
   <varray name="rec_basis" >
    <v>      -0.17357793       0.17357793       0.17357793 </v>
    <v>       0.17357793      -0.17357793       0.17357793 </v>
    <v>       0.17357793       0.17357793      -0.17357793 </v>
   </varray>
  </crystal>
  <varray name="positions" >
   <v>       0.00000000       0.00000000       0.00000000 </v>
   <v>       0.25000000       0.25000000       0.25000000 </v>
  </varray>
 </structure>
 <calculation>
  <scstep>
   <time name="dav">    0.05    0.05</time>
   <time name="total">    0.17    0.17</time>
   <energy>
    <i name="alphaZ">     17.89088900 </i>
    <i name="ewald">   -224.88292923 </i>
    <i name="hartreedc">    -18.77989585 </i>
    <i name="XCdc">    -31.12855626 </i>
    <i name="pawpsdc">    209.13017684 </i>
    <i name="pawaedc">   -163.99810489 </i>
    <i name="eentropy">     -0.00016929 </i>
    <i name="bandstr">     -3.14050116 </i>
    <i name="atom">    229.05435068 </i>
    <i name="e_fr_energy">     14.14525986 </i>
    <i name="e_wo_entrp">     14.14542915 </i>
    <i name="e_0_energy">     14.14534451 </i>
   </energy>
  </scstep>
  <scstep>
   <time name="dav">    0.06    0.06</time>
   <time name="total">    0.06    0.06</time>
   <energy>
    <i name="e_fr_energy">     -7.92907760 </i>
    <i name="e_wo_entrp">     -7.92907760 </i>
    <i name="e_0_energy">     -7.92907760 </i>
   </energy>
  </scstep>
  <scstep>
   <time name="dav">    0.06    0.06</time>
   <time name="total">    0.06    0.06</time>
   <energy>
    <i name="e_fr_energy">     -8.44268447 </i>
    <i name="e_wo_entrp">     -8.44268447 </i>
    <i name="e_0_energy">     -8.44268447 </i>
   </energy>
  </scstep>
  <scstep>
   <time name="dav">    0.08    0.08</time>
   <time name="total">    0.08    0.08</time>
   <energy>
    <i name="e_fr_energy">     -8.44402725 </i>
    <i name="e_wo_entrp">     -8.44402725 </i>
    <i name="e_0_energy">     -8.44402725 </i>
   </energy>
  </scstep>
  <scstep>
   <time name="dav">    0.06    0.06</time>
   <time name="total">    0.06    0.06</time>
   <energy>
    <i name="e_fr_energy">     -8.44402772 </i>
    <i name="e_wo_entrp">     -8.44402772 </i>
    <i name="e_0_energy">     -8.44402772 </i>
   </energy>
  </scstep>
  <scstep>
   <time name="dav">    0.08    0.08</time>
   <time name="total">    0.08    0.08</time>
   <energy>
    <i name="e_fr_energy">     -8.44402772 </i>
    <i name="e_wo_entrp">     -8.44402772 </i>
    <i name="e_0_energy">     -8.44402772 </i>
   </energy>
  </scstep>
  <scstep>
   <time name="dav">    0.06    0.06</time>
   <time name="total">    0.06    0.06</time>
   <energy>
    <i name="e_fr_energy">     -8.44402772 </i>
    <i name="e_wo_entrp">     -8.44402772 </i>
    <i name="e_0_energy">     -8.44402772 </i>
   </energy>
  </scstep>
  <scstep>
   <time name="dav">    0.06    0.06</time>
   <time name="total">    0.08    0.08</time>
   <energy>
    <i name="e_fr_energy">     -8.44402772 </i>
    <i name="e_wo_entrp">     -8.44402772 </i>
    <i name="e_0_energy">     -8.44402772 </i>
   </energy>
  </scstep>
  <scstep>
   <time name="dav">    0.05    0.05</time>
   <time name="total">    0.20    0.20</time>
   <energy>
    <i name="e_fr_energy">     -8.35085183 </i>
    <i name="e_wo_entrp">     -8.35085183 </i>
    <i name="e_0_energy">     -8.35085183 </i>
   </energy>
  </scstep>
  <scstep>
   <time name="dav">    0.05    0.05</time>
   <time name="total">    0.20    0.20</time>
   <energy>
    <i name="e_fr_energy">     -8.29150468 </i>
    <i name="e_wo_entrp">     -8.29150468 </i>
    <i name="e_0_energy">     -8.29150468 </i>
   </energy>
  </scstep>
  <scstep>
   <time name="dav">    0.05    0.05</time>
   <time name="total">    0.19    0.19</time>
   <energy>
    <i name="e_fr_energy">     -8.28593347 </i>
    <i name="e_wo_entrp">     -8.28593347 </i>
    <i name="e_0_energy">     -8.28593347 </i>
   </energy>
  </scstep>
  <scstep>
   <time name="dav">    0.06    0.06</time>
   <time name="total">    0.20    0.20</time>
   <energy>
    <i name="e_fr_energy">     -8.28606271 </i>
    <i name="e_wo_entrp">     -8.28606271 </i>
    <i name="e_0_energy">     -8.28606271 </i>
   </energy>
  </scstep>
  <scstep>
   <time name="dav">    0.06    0.06</time>
   <time name="total">    0.20    0.20</time>
   <energy>
    <i name="e_fr_energy">     -8.28609003 </i>
    <i name="e_wo_entrp">     -8.28609003 </i>
    <i name="e_0_energy">     -8.28609003 </i>
   </energy>
  </scstep>
  <scstep>
   <time name="dav">    0.05    0.05</time>
   <time name="total">    0.19    0.19</time>
   <energy>
    <i name="e_fr_energy">     -8.28609622 </i>
    <i name="e_wo_entrp">     -8.28609622 </i>
    <i name="e_0_energy">     -8.28609622 </i>
   </energy>
  </scstep>
  <scstep>
   <time name="dav">    0.06    0.06</time>
   <time name="total">    0.20    0.20</time>
   <energy>
    <i name="e_fr_energy">     -8.28609941 </i>
    <i name="e_wo_entrp">     -8.28609941 </i>
    <i name="e_0_energy">     -8.28609941 </i>
   </energy>
  </scstep>
  <scstep>
   <time name="dav">    0.05    0.05</time>
   <time name="total">    0.20    0.20</time>
   <energy>
    <i name="e_fr_energy">     -8.28609831 </i>
    <i name="e_wo_entrp">     -8.28609831 </i>
    <i name="e_0_energy">     -8.28609831 </i>
   </energy>
  </scstep>
  <scstep>
   <time name="dav">    0.04    0.04</time>
   <time name="total">    0.16    0.16</time>
   <energy>
    <i name="alphaZ">     17.89088900 </i>
    <i name="ewald">   -224.88292923 </i>
    <i name="hartreedc">    -22.18868223 </i>
    <i name="XCdc">    -30.43976638 </i>
    <i name="pawpsdc">    460.00225247 </i>
    <i name="pawaedc">   -415.23471185 </i>
    <i name="eentropy">     -0.00000000 </i>
    <i name="bandstr">    -22.48750080 </i>
    <i name="atom">    229.05435068 </i>
    <i name="e_fr_energy">     -8.28609835 </i>
    <i name="e_wo_entrp">     -8.28609835 </i>
    <i name="e_0_energy">     -8.28609835 </i>
   </energy>
  </scstep>
  <structure>
   <crystal>
    <varray name="basis" >
     <v>       0.00000000       2.88055050       2.88055050 </v>
     <v>       2.88055050       0.00000000       2.88055050 </v>
     <v>       2.88055050       2.88055050       0.00000000 </v>
    </varray>
    <i name="volume">     47.80314583 </i>
    <varray name="rec_basis" >
     <v>      -0.17357793       0.17357793       0.17357793 </v>
     <v>       0.17357793      -0.17357793       0.17357793 </v>
     <v>       0.17357793       0.17357793      -0.17357793 </v>
    </varray>
   </crystal>
   <varray name="positions" >
    <v>       0.00000000       0.00000000       0.00000000 </v>
    <v>       0.25000000       0.25000000       0.25000000 </v>
   </varray>
  </structure>
  <varray name="forces" >
   <v>       0.00000000       0.00000000      -0.00000000 </v>
   <v>      -0.00000000      -0.00000000       0.00000000 </v>
  </varray>
  <varray name="stress" >
   <v>       0.05104317       0.00000000       0.00000000 </v>
   <v>       0.00000000       0.05104317       0.00000000 </v>
   <v>      -0.00000000       0.00000000       0.05104317 </v>
  </varray>
  <energy>
   <i name="e_fr_energy">     -8.28609835 </i>
   <i name="e_wo_entrp">     -8.28609835 </i>
   <i name="e_0_energy">     -0.00000000 </i>
  </energy>
  <time name="totalsc">    3.13    3.13</time>
  <eigenvalues>
   <array>
    <dimension dim="1">band</dimension>
    <dimension dim="2">kpoint</dimension>
    <dimension dim="3">spin</dimension>
    <field>eigene</field>
    <field>occ</field>
    <set>
     <set comment="spin 1">
      <set comment="kpoint 1">
       <r>  -10.0180    1.0000 </r>
       <r>    2.2946    1.0000 </r>
       <r>    2.2946    1.0000 </r>
       <r>    2.2946    1.0000 </r>
       <r>    2.4516    0.0000 </r>
       <r>    6.0407    0.0000 </r>
       <r>    6.0407    0.0000 </r>
       <r>    6.0407    0.0000 </r>
      </set>
      <set comment="kpoint 2">
       <r>   -9.8942    1.0000 </r>
       <r>    0.5429    1.0000 </r>
       <r>    2.1205    1.0000 </r>
       <r>    2.1205    1.0000 </r>
       <r>    3.5976    0.0000 </r>
       <r>    6.3042    0.0000 </r>
       <r>    6.3042    0.0000 </r>
       <r>    6.3093    0.0000 </r>
      </set>
      <set comment="kpoint 3">
       <r>   -9.5413    1.0000 </r>
       <r>   -1.3034    1.0000 </r>
       <r>    1.7628    1.0000 </r>
       <r>    1.7628    1.0000 </r>
       <r>    3.6691    0.0000 </r>
       <r>    6.7767    0.0000 </r>
       <r>    6.7767    0.0000 </r>
       <r>    7.5894    0.0000 </r>
      </set>
      <set comment="kpoint 4">
       <r>   -9.0358    1.0000 </r>
       <r>   -2.8803    1.0000 </r>
       <r>    1.4431    1.0000 </r>
       <r>    1.4431    1.0000 </r>
       <r>    3.3864    0.0000 </r>
       <r>    6.9726    0.0000 </r>
       <r>    6.9726    0.0000 </r>
       <r>    9.2839    0.0000 </r>
      </set>
      <set comment="kpoint 5">
       <r>   -8.5958    1.0000 </r>
       <r>   -3.8750    1.0000 </r>
       <r>    1.2658    1.0000 </r>
       <r>    1.2658    1.0000 </r>
       <r>    3.2025    0.0000 </r>
       <r>    6.9442    0.0000 </r>
       <r>    6.9442    0.0000 </r>
       <r>    9.9829    0.0000 </r>
      </set>
      <set comment="kpoint 6">
       <r>   -9.8526    1.0000 </r>
       <r>    0.4694    1.0000 </r>
       <r>    1.8013    1.0000 </r>
       <r>    1.8013    1.0000 </r>
       <r>    4.1977    0.0000 </r>
       <r>    5.5096    0.0000 </r>
       <r>    6.7643    0.0000 </r>
       <r>    6.7643    0.0000 </r>
      </set>
      <set comment="kpoint 7">
       <r>   -9.5742    1.0000 </r>
       <r>   -0.9107    1.0000 </r>
       <r>    1.3926    1.0000 </r>
       <r>    1.4095    1.0000 </r>
       <r>    4.5788    0.0000 </r>
       <r>    5.6383    0.0000 </r>
       <r>    7.3978    0.0000 </r>
       <r>    7.5447    0.0000 </r>
      </set>
      <set comment="kpoint 8">
       <r>   -9.1112    1.0000 </r>
       <r>   -2.4457    1.0000 </r>
       <r>    0.9223    1.0000 </r>
       <r>    1.0948    1.0000 </r>
       <r>    4.3745    0.0000 </r>
       <r>    6.3255    0.0000 </r>
       <r>    7.6768    0.0000 </r>
       <r>    8.2262    0.0000 </r>
      </set>
      <set comment="kpoint 9">
       <r>   -8.6209    1.0000 </r>
       <r>   -3.6088    1.0000 </r>
       <r>    0.5159    1.0000 </r>
       <r>    0.9890    1.0000 </r>
       <r>    4.1554    0.0000 </r>
       <r>    6.5995    0.0000 </r>
       <r>    7.5464    0.0000 </r>
       <r>    9.4010    0.0000 </r>
      </set>
      <set comment="kpoint 10">
       <r>   -8.4464    1.0000 </r>
       <r>   -3.9547    1.0000 </r>
       <r>    0.2988    1.0000 </r>
       <r>    1.0910    1.0000 </r>
       <r>    4.0824    0.0000 </r>
       <r>    6.7319    0.0000 </r>
       <r>    7.3338    0.0000 </r>
       <r>   10.2183    0.0000 </r>
      </set>
      <set comment="kpoint 11">
       <r>   -8.7728    1.0000 </r>
       <r>   -3.2809    1.0000 </r>
       <r>    0.3192    1.0000 </r>
       <r>    1.3747    1.0000 </r>
       <r>    4.1763    0.0000 </r>
       <r>    6.9495    0.0000 </r>
       <r>    7.1508    0.0000 </r>
       <r>    9.3082    0.0000 </r>
      </set>
      <set comment="kpoint 12">
       <r>   -9.2826    1.0000 </r>
       <r>   -1.9609    1.0000 </r>
       <r>    0.6168    1.0000 </r>
       <r>    1.7647    1.0000 </r>
       <r>    4.3619    0.0000 </r>
       <r>    6.8399    0.0000 </r>
       <r>    6.8771    0.0000 </r>
       <r>    8.0469    0.0000 </r>
      </set>
      <set comment="kpoint 13">
       <r>   -9.6932    1.0000 </r>
       <r>   -0.4890    1.0000 </r>
       <r>    1.2684    1.0000 </r>
       <r>    2.0961    1.0000 </r>
       <r>    4.2400    0.0000 </r>
       <r>    6.2291    0.0000 </r>
       <r>    6.3954    0.0000 </r>
       <r>    7.3734    0.0000 </r>
      </set>
      <set comment="kpoint 14">
       <r>   -9.3754    1.0000 </r>
       <r>   -1.3309    1.0000 </r>
       <r>    0.9401    1.0000 </r>
       <r>    0.9401    1.0000 </r>
       <r>    4.4912    0.0000 </r>
       <r>    5.4566    0.0000 </r>
       <r>    8.2992    0.0000 </r>
       <r>    8.2992    0.0000 </r>
      </set>
      <set comment="kpoint 15">
       <r>   -8.9801    1.0000 </r>
       <r>   -2.3737    1.0000 </r>
       <r>    0.3713    1.0000 </r>
       <r>    0.6148    1.0000 </r>
       <r>    4.5456    0.0000 </r>
       <r>    5.5793    0.0000 </r>
       <r>    8.3154    0.0000 </r>
       <r>    8.8952    0.0000 </r>
      </set>
      <set comment="kpoint 16">
       <r>   -8.5028    1.0000 </r>
       <r>   -3.3916    1.0000 </r>
       <r>   -0.3110    1.0000 </r>
       <r>    0.5038    1.0000 </r>
       <r>    4.5817    0.0000 </r>
       <r>    6.5117    0.0000 </r>
       <r>    8.1425    0.0000 </r>
       <r>    8.8642    0.0000 </r>
      </set>
      <set comment="kpoint 17">
       <r>   -8.2159    1.0000 </r>
       <r>   -3.9029    1.0000 </r>
       <r>   -0.7811    1.0000 </r>
       <r>    0.6270    1.0000 </r>
       <r>    4.6143    0.0000 </r>
       <r>    7.1767    0.0000 </r>
       <r>    8.5324    0.0000 </r>
       <r>    9.0638    0.0000 </r>
      </set>
      <set comment="kpoint 18">
       <r>   -8.3916    1.0000 </r>
       <r>   -3.5918    1.0000 </r>
       <r>   -0.8896    1.0000 </r>
       <r>    0.9568    1.0000 </r>
       <r>    4.7932    0.0000 </r>
       <r>    7.3739    0.0000 </r>
       <r>    8.1070    0.0000 </r>
       <r>    9.1280    0.0000 </r>
      </set>
      <set comment="kpoint 19">
       <r>   -8.8499    1.0000 </r>
       <r>   -2.7654    1.0000 </r>
       <r>   -0.4709    1.0000 </r>
       <r>    1.4032    1.0000 </r>
       <r>    4.9173    0.0000 </r>
       <r>    7.4444    0.0000 </r>
       <r>    7.4767    0.0000 </r>
       <r>    7.8194    0.0000 </r>
      </set>
      <set comment="kpoint 20">
       <r>   -8.6666    1.0000 </r>
       <r>   -2.9337    1.0000 </r>
       <r>    0.2433    1.0000 </r>
       <r>    0.2433    1.0000 </r>
       <r>    3.9475    0.0000 </r>
       <r>    4.9320    0.0000 </r>
       <r>   10.0713    0.0000 </r>
       <r>   10.0713    0.0000 </r>
      </set>
      <set comment="kpoint 21">
       <r>   -8.2630    1.0000 </r>
       <r>   -3.6246    1.0000 </r>
       <r>   -0.3352    1.0000 </r>
       <r>    0.0866    1.0000 </r>
       <r>    4.1326    0.0000 </r>
       <r>    5.0121    0.0000 </r>
       <r>    9.8576    0.0000 </r>
       <r>   10.4807    0.0000 </r>
      </set>
      <set comment="kpoint 22">
       <r>   -7.9797    1.0000 </r>
       <r>   -4.0059    1.0000 </r>
       <r>   -1.0720    1.0000 </r>
       <r>    0.1758    1.0000 </r>
       <r>    4.2767    0.0000 </r>
       <r>    6.4031    0.0000 </r>
       <r>    9.5615    0.0000 </r>
       <r>   10.1223    0.0000 </r>
      </set>
      <set comment="kpoint 23">
       <r>   -8.0468    1.0000 </r>
       <r>   -3.9022    1.0000 </r>
       <r>   -1.3775    1.0000 </r>
       <r>    0.4926    1.0000 </r>
       <r>    4.5470    0.0000 </r>
       <r>    7.9485    0.0000 </r>
       <r>    9.2948    0.0000 </r>
       <r>    9.5532    0.0000 </r>
      </set>
      <set comment="kpoint 24">
       <r>   -7.9949    1.0000 </r>
       <r>   -4.0601    1.0000 </r>
       <r>   -0.1290    1.0000 </r>
       <r>   -0.1290    1.0000 </r>
       <r>    3.8081    0.0000 </r>
       <r>    4.1782    0.0000 </r>
       <r>   11.7082    0.0000 </r>
       <r>   11.7082    0.0000 </r>
      </set>
      <set comment="kpoint 25">
       <r>   -7.8700    1.0000 </r>
       <r>   -4.2006    1.0000 </r>
       <r>   -0.5791    1.0000 </r>
       <r>   -0.0972    1.0000 </r>
       <r>    4.0036    0.0000 </r>
       <r>    4.6999    0.0000 </r>
       <r>   11.2773    0.0000 </r>
       <r>   11.5014    0.0000 </r>
      </set>
      <set comment="kpoint 26">
       <r>   -9.2365    1.0000 </r>
       <r>   -1.8605    1.0000 </r>
       <r>    0.3885    1.0000 </r>
       <r>    1.3068    1.0000 </r>
       <r>    5.0699    0.0000 </r>
       <r>    5.6584    0.0000 </r>
       <r>    7.7331    0.0000 </r>
       <r>    8.0443    0.0000 </r>
      </set>
      <set comment="kpoint 27">
       <r>   -8.7574    1.0000 </r>
       <r>   -2.9846    1.0000 </r>
       <r>   -0.2318    1.0000 </r>
       <r>    0.9555    1.0000 </r>
       <r>    5.0837    0.0000 </r>
       <r>    6.3451    0.0000 </r>
       <r>    7.6888    0.0000 </r>
       <r>    8.6097    0.0000 </r>
      </set>
      <set comment="kpoint 28">
       <r>   -8.3472    1.0000 </r>
       <r>   -3.7952    1.0000 </r>
       <r>   -0.4877    1.0000 </r>
       <r>    0.6939    1.0000 </r>
       <r>    4.9751    0.0000 </r>
       <r>    6.4967    0.0000 </r>
       <r>    8.2032    0.0000 </r>
       <r>    9.3953    0.0000 </r>
      </set>
      <set comment="kpoint 29">
       <r>   -8.5711    1.0000 </r>
       <r>   -3.1256    1.0000 </r>
       <r>   -0.2698    1.0000 </r>
       <r>    0.3119    1.0000 </r>
       <r>    4.8586    0.0000 </r>
       <r>    5.4985    0.0000 </r>
       <r>    8.2042    0.0000 </r>
       <r>    9.9860    0.0000 </r>
      </set>
      <set comment="kpoint 30">
       <r>   -8.1658    1.0000 </r>
       <r>   -3.7616    1.0000 </r>
       <r>   -0.8539    1.0000 </r>
       <r>    0.0681    1.0000 </r>
       <r>    5.1223    0.0000 </r>
       <r>    6.5065    0.0000 </r>
       <r>    7.8827    0.0000 </r>
       <r>   10.2131    0.0000 </r>
      </set>
      <set comment="kpoint 31">
       <r>   -8.0464    1.0000 </r>
       <r>   -3.9233    1.0000 </r>
       <r>   -1.1834    1.0000 </r>
       <r>    0.1592    1.0000 </r>
       <r>    5.2910    0.0000 </r>
       <r>    7.2040    0.0000 </r>
       <r>    8.3634    0.0000 </r>
       <r>    9.5811    0.0000 </r>
      </set>
      <set comment="kpoint 32">
       <r>   -8.3257    1.0000 </r>
       <r>   -3.5398    1.0000 </r>
       <r>   -1.0275    1.0000 </r>
       <r>    0.5240    1.0000 </r>
       <r>    5.5071    0.0000 </r>
       <r>    6.9946    0.0000 </r>
       <r>    7.4597    0.0000 </r>
       <r>    9.7391    0.0000 </r>
      </set>
      <set comment="kpoint 33">
       <r>   -7.9648    1.0000 </r>
       <r>   -4.0286    1.0000 </r>
       <r>   -0.5443    1.0000 </r>
       <r>   -0.3360    1.0000 </r>
       <r>    4.6832    0.0000 </r>
       <r>    4.9598    0.0000 </r>
       <r>    9.7405    0.0000 </r>
       <r>   11.1694    0.0000 </r>
      </set>
      <set comment="kpoint 34">
       <r>   -7.8719    1.0000 </r>
       <r>   -4.0875    1.0000 </r>
       <r>   -1.0993    1.0000 </r>
       <r>   -0.2631    1.0000 </r>
       <r>    4.9823    0.0000 </r>
       <r>    6.4261    0.0000 </r>
       <r>    9.2340    0.0000 </r>
       <r>    9.5553    0.0000 </r>
      </set>
      <set comment="kpoint 35">
       <r>   -7.9057    1.0000 </r>
       <r>   -4.0041    1.0000 </r>
       <r>   -1.0826    1.0000 </r>
       <r>   -0.4899    1.0000 </r>
       <r>    6.3733    0.0000 </r>
       <r>    6.7099    0.0000 </r>
       <r>    7.5337    0.0000 </r>
       <r>    9.1635    0.0000 </r>
      </set>
     </set>
    </set>
   </array>
  </eigenvalues>
  <separator name="orbital magnetization" >
   <v name="MAGDIPOLOUT">      0.00000000      0.00000000      0.00000000</v>
  </separator>
  <dos>
   <i name="efermi">      2.37612933 </i>
   <total>
    <array>
     <dimension dim="1">gridpoints</dimension>
     <dimension dim="2">spin</dimension>
     <field>energy</field>
     <field>total</field>
     <field>integrated</field>
     <set>
      <set comment="spin 1">
       <r>   -11.1043     0.0000     0.0000 </r>
       <r>    -8.7144     0.0827     0.6941 </r>
       <r>    -6.3245     0.0000     2.0000 </r>
       <r>    -3.9346     0.0856     2.3856 </r>
       <r>    -1.5448     0.0000     3.8217 </r>
       <r>     0.8451     0.0000     6.8615 </r>
       <r>     3.2350     0.0092     8.0247 </r>
       <r>     5.6249     0.0283    10.2982 </r>
       <r>     8.0148     0.0138    13.2236 </r>
       <r>    10.4046     0.0000    15.7695 </r>
       <r>    12.7945     0.0000    16.0000 </r>
      </set>
     </set>
    </array>
   </total>
   <partial>
    <array>
     <dimension dim="1">gridpoints</dimension>
     <dimension dim="2">spin</dimension>
     <dimension dim="3">ion</dimension>
     <field>energy</field>
     <field>  s  </field>
     <field>  p  </field>
     <field>  d  </field>
     <set>
      <set comment="ion 1">
       <set comment="spin 1">
        <r>   -11.1043     0.0000     0.0000     0.0000 </r>
        <r>    -8.7144     0.0114     0.0034     0.0006 </r>
        <r>    -6.3245     0.0000     0.0000     0.0000 </r>
        <r>    -3.9346     0.0419     0.0028     0.0002 </r>
        <r>    -1.5448     0.0000     0.0000     0.0000 </r>
        <r>     0.8451     0.0000     0.0000     0.0000 </r>
        <r>     3.2350     0.0027     0.0008     0.0002 </r>
        <r>     5.6249     0.0027     0.0052     0.0009 </r>
        <r>     8.0148     0.0016     0.0005     0.0004 </r>
        <r>    10.4046     0.0000     0.0000     0.0000 </r>
        <r>    12.7945     0.0000     0.0000     0.0000 </r>
       </set>
      </set>
      <set comment="ion 2">
       <set comment="spin 1">
        <r>   -11.1043     0.0000     0.0000     0.0000 </r>
        <r>    -8.7144     0.0415     0.0004     0.0000 </r>
        <r>    -6.3245     0.0000     0.0000     0.0000 </r>
        <r>    -3.9346     0.0017     0.0123     0.0004 </r>
        <r>    -1.5448     0.0000     0.0000     0.0000 </r>
        <r>     0.8451     0.0000     0.0000     0.0000 </r>
        <r>     3.2350     0.0013     0.0005     0.0002 </r>
        <r>     5.6249     0.0023     0.0038     0.0007 </r>
        <r>     8.0148     0.0000     0.0045     0.0005 </r>
        <r>    10.4046     0.0000     0.0000     0.0000 </r>
        <r>    12.7945     0.0000     0.0000     0.0000 </r>
       </set>
      </set>
     </set>
    </array>
   </partial>
  </dos>
  <projected>
   <eigenvalues>
    <array>
     <dimension dim="1">band</dimension>
     <dimension dim="2">kpoint</dimension>
     <dimension dim="3">spin</dimension>
     <field>eigene</field>
     <field>occ</field>
     <set>
      <set comment="spin 1">
       <set comment="kpoint 1">
        <r>  -10.0180    1.0000 </r>
        <r>    2.2946    1.0000 </r>
        <r>    2.2946    1.0000 </r>
        <r>    2.2946    1.0000 </r>
        <r>    2.4516    0.0000 </r>
        <r>    6.0407    0.0000 </r>
        <r>    6.0407    0.0000 </r>
        <r>    6.0407    0.0000 </r>
       </set>
       <set comment="kpoint 2">
        <r>   -9.8942    1.0000 </r>
        <r>    0.5429    1.0000 </r>
        <r>    2.1205    1.0000 </r>
        <r>    2.1205    1.0000 </r>
        <r>    3.5976    0.0000 </r>
        <r>    6.3042    0.0000 </r>
        <r>    6.3042    0.0000 </r>
        <r>    6.3093    0.0000 </r>
       </set>
       <set comment="kpoint 3">
        <r>   -9.5413    1.0000 </r>
        <r>   -1.3034    1.0000 </r>
        <r>    1.7628    1.0000 </r>
        <r>    1.7628    1.0000 </r>
        <r>    3.6691    0.0000 </r>
        <r>    6.7767    0.0000 </r>
        <r>    6.7767    0.0000 </r>
        <r>    7.5894    0.0000 </r>
       </set>
       <set comment="kpoint 4">
        <r>   -9.0358    1.0000 </r>
        <r>   -2.8803    1.0000 </r>
        <r>    1.4431    1.0000 </r>
        <r>    1.4431    1.0000 </r>
        <r>    3.3864    0.0000 </r>
        <r>    6.9726    0.0000 </r>
        <r>    6.9726    0.0000 </r>
        <r>    9.2839    0.0000 </r>
       </set>
       <set comment="kpoint 5">
        <r>   -8.5958    1.0000 </r>
        <r>   -3.8750    1.0000 </r>
        <r>    1.2658    1.0000 </r>
        <r>    1.2658    1.0000 </r>
        <r>    3.2025    0.0000 </r>
        <r>    6.9442    0.0000 </r>
        <r>    6.9442    0.0000 </r>
        <r>    9.9829    0.0000 </r>
       </set>
       <set comment="kpoint 6">
        <r>   -9.8526    1.0000 </r>
        <r>    0.4694    1.0000 </r>
        <r>    1.8013    1.0000 </r>
        <r>    1.8013    1.0000 </r>
        <r>    4.1977    0.0000 </r>
        <r>    5.5096    0.0000 </r>
        <r>    6.7643    0.0000 </r>
        <r>    6.7643    0.0000 </r>
       </set>
       <set comment="kpoint 7">
        <r>   -9.5742    1.0000 </r>
        <r>   -0.9107    1.0000 </r>
        <r>    1.3926    1.0000 </r>
        <r>    1.4095    1.0000 </r>
        <r>    4.5788    0.0000 </r>
        <r>    5.6383    0.0000 </r>
        <r>    7.3978    0.0000 </r>
        <r>    7.5447    0.0000 </r>
       </set>
       <set comment="kpoint 8">
        <r>   -9.1112    1.0000 </r>
        <r>   -2.4457    1.0000 </r>
        <r>    0.9223    1.0000 </r>
        <r>    1.0948    1.0000 </r>
        <r>    4.3745    0.0000 </r>
        <r>    6.3255    0.0000 </r>
        <r>    7.6768    0.0000 </r>
        <r>    8.2262    0.0000 </r>
       </set>
       <set comment="kpoint 9">
        <r>   -8.6209    1.0000 </r>
        <r>   -3.6088    1.0000 </r>
        <r>    0.5159    1.0000 </r>
        <r>    0.9890    1.0000 </r>
        <r>    4.1554    0.0000 </r>
        <r>    6.5995    0.0000 </r>
        <r>    7.5464    0.0000 </r>
        <r>    9.4010    0.0000 </r>
       </set>
       <set comment="kpoint 10">
        <r>   -8.4464    1.0000 </r>
        <r>   -3.9547    1.0000 </r>
        <r>    0.2988    1.0000 </r>
        <r>    1.0910    1.0000 </r>
        <r>    4.0824    0.0000 </r>
        <r>    6.7319    0.0000 </r>
        <r>    7.3338    0.0000 </r>
        <r>   10.2183    0.0000 </r>
       </set>
       <set comment="kpoint 11">
        <r>   -8.7728    1.0000 </r>
        <r>   -3.2809    1.0000 </r>
        <r>    0.3192    1.0000 </r>
        <r>    1.3747    1.0000 </r>
        <r>    4.1763    0.0000 </r>
        <r>    6.9495    0.0000 </r>
        <r>    7.1508    0.0000 </r>
        <r>    9.3082    0.0000 </r>
       </set>
       <set comment="kpoint 12">
        <r>   -9.2826    1.0000 </r>
        <r>   -1.9609    1.0000 </r>
        <r>    0.6168    1.0000 </r>
        <r>    1.7647    1.0000 </r>
        <r>    4.3619    0.0000 </r>
        <r>    6.8399    0.0000 </r>
        <r>    6.8771    0.0000 </r>
        <r>    8.0469    0.0000 </r>
       </set>
       <set comment="kpoint 13">
        <r>   -9.6932    1.0000 </r>
        <r>   -0.4890    1.0000 </r>
        <r>    1.2684    1.0000 </r>
        <r>    2.0961    1.0000 </r>
        <r>    4.2400    0.0000 </r>
        <r>    6.2291    0.0000 </r>
        <r>    6.3954    0.0000 </r>
        <r>    7.3734    0.0000 </r>
       </set>
       <set comment="kpoint 14">
        <r>   -9.3754    1.0000 </r>
        <r>   -1.3309    1.0000 </r>
        <r>    0.9401    1.0000 </r>
        <r>    0.9401    1.0000 </r>
        <r>    4.4912    0.0000 </r>
        <r>    5.4566    0.0000 </r>
        <r>    8.2992    0.0000 </r>
        <r>    8.2992    0.0000 </r>
       </set>
       <set comment="kpoint 15">
        <r>   -8.9801    1.0000 </r>
        <r>   -2.3737    1.0000 </r>
        <r>    0.3713    1.0000 </r>
        <r>    0.6148    1.0000 </r>
        <r>    4.5456    0.0000 </r>
        <r>    5.5793    0.0000 </r>
        <r>    8.3154    0.0000 </r>
        <r>    8.8952    0.0000 </r>
       </set>
       <set comment="kpoint 16">
        <r>   -8.5028    1.0000 </r>
        <r>   -3.3916    1.0000 </r>
        <r>   -0.3110    1.0000 </r>
        <r>    0.5038    1.0000 </r>
        <r>    4.5817    0.0000 </r>
        <r>    6.5117    0.0000 </r>
        <r>    8.1425    0.0000 </r>
        <r>    8.8642    0.0000 </r>
       </set>
       <set comment="kpoint 17">
        <r>   -8.2159    1.0000 </r>
        <r>   -3.9029    1.0000 </r>
        <r>   -0.7811    1.0000 </r>
        <r>    0.6270    1.0000 </r>
        <r>    4.6143    0.0000 </r>
        <r>    7.1767    0.0000 </r>
        <r>    8.5324    0.0000 </r>
        <r>    9.0638    0.0000 </r>
       </set>
       <set comment="kpoint 18">
        <r>   -8.3916    1.0000 </r>
        <r>   -3.5918    1.0000 </r>
        <r>   -0.8896    1.0000 </r>
        <r>    0.9568    1.0000 </r>
        <r>    4.7932    0.0000 </r>
        <r>    7.3739    0.0000 </r>
        <r>    8.1070    0.0000 </r>
        <r>    9.1280    0.0000 </r>
       </set>
       <set comment="kpoint 19">
        <r>   -8.8499    1.0000 </r>
        <r>   -2.7654    1.0000 </r>
        <r>   -0.4709    1.0000 </r>
        <r>    1.4032    1.0000 </r>
        <r>    4.9173    0.0000 </r>
        <r>    7.4444    0.0000 </r>
        <r>    7.4767    0.0000 </r>
        <r>    7.8194    0.0000 </r>
       </set>
       <set comment="kpoint 20">
        <r>   -8.6666    1.0000 </r>
        <r>   -2.9337    1.0000 </r>
        <r>    0.2433    1.0000 </r>
        <r>    0.2433    1.0000 </r>
        <r>    3.9475    0.0000 </r>
        <r>    4.9320    0.0000 </r>
        <r>   10.0713    0.0000 </r>
        <r>   10.0713    0.0000 </r>
       </set>
       <set comment="kpoint 21">
        <r>   -8.2630    1.0000 </r>
        <r>   -3.6246    1.0000 </r>
        <r>   -0.3352    1.0000 </r>
        <r>    0.0866    1.0000 </r>
        <r>    4.1326    0.0000 </r>
        <r>    5.0121    0.0000 </r>
        <r>    9.8576    0.0000 </r>
        <r>   10.4807    0.0000 </r>
       </set>
       <set comment="kpoint 22">
        <r>   -7.9797    1.0000 </r>
        <r>   -4.0059    1.0000 </r>
        <r>   -1.0720    1.0000 </r>
        <r>    0.1758    1.0000 </r>
        <r>    4.2767    0.0000 </r>
        <r>    6.4031    0.0000 </r>
        <r>    9.5615    0.0000 </r>
        <r>   10.1223    0.0000 </r>
       </set>
       <set comment="kpoint 23">
        <r>   -8.0468    1.0000 </r>
        <r>   -3.9022    1.0000 </r>
        <r>   -1.3775    1.0000 </r>
        <r>    0.4926    1.0000 </r>
        <r>    4.5470    0.0000 </r>
        <r>    7.9485    0.0000 </r>
        <r>    9.2948    0.0000 </r>
        <r>    9.5532    0.0000 </r>
       </set>
       <set comment="kpoint 24">
        <r>   -7.9949    1.0000 </r>
        <r>   -4.0601    1.0000 </r>
        <r>   -0.1290    1.0000 </r>
        <r>   -0.1290    1.0000 </r>
        <r>    3.8081    0.0000 </r>
        <r>    4.1782    0.0000 </r>
        <r>   11.7082    0.0000 </r>
        <r>   11.7082    0.0000 </r>
       </set>
       <set comment="kpoint 25">
        <r>   -7.8700    1.0000 </r>
        <r>   -4.2006    1.0000 </r>
        <r>   -0.5791    1.0000 </r>
        <r>   -0.0972    1.0000 </r>
        <r>    4.0036    0.0000 </r>
        <r>    4.6999    0.0000 </r>
        <r>   11.2773    0.0000 </r>
        <r>   11.5014    0.0000 </r>
       </set>
       <set comment="kpoint 26">
        <r>   -9.2365    1.0000 </r>
        <r>   -1.8605    1.0000 </r>
        <r>    0.3885    1.0000 </r>
        <r>    1.3068    1.0000 </r>
        <r>    5.0699    0.0000 </r>
        <r>    5.6584    0.0000 </r>
        <r>    7.7331    0.0000 </r>
        <r>    8.0443    0.0000 </r>
       </set>
       <set comment="kpoint 27">
        <r>   -8.7574    1.0000 </r>
        <r>   -2.9846    1.0000 </r>
        <r>   -0.2318    1.0000 </r>
        <r>    0.9555    1.0000 </r>
        <r>    5.0837    0.0000 </r>
        <r>    6.3451    0.0000 </r>
        <r>    7.6888    0.0000 </r>
        <r>    8.6097    0.0000 </r>
       </set>
       <set comment="kpoint 28">
        <r>   -8.3472    1.0000 </r>
        <r>   -3.7952    1.0000 </r>
        <r>   -0.4877    1.0000 </r>
        <r>    0.6939    1.0000 </r>
        <r>    4.9751    0.0000 </r>
        <r>    6.4967    0.0000 </r>
        <r>    8.2032    0.0000 </r>
        <r>    9.3953    0.0000 </r>
       </set>
       <set comment="kpoint 29">
        <r>   -8.5711    1.0000 </r>
        <r>   -3.1256    1.0000 </r>
        <r>   -0.2698    1.0000 </r>
        <r>    0.3119    1.0000 </r>
        <r>    4.8586    0.0000 </r>
        <r>    5.4985    0.0000 </r>
        <r>    8.2042    0.0000 </r>
        <r>    9.9860    0.0000 </r>
       </set>
       <set comment="kpoint 30">
        <r>   -8.1658    1.0000 </r>
        <r>   -3.7616    1.0000 </r>
        <r>   -0.8539    1.0000 </r>
        <r>    0.0681    1.0000 </r>
        <r>    5.1223    0.0000 </r>
        <r>    6.5065    0.0000 </r>
        <r>    7.8827    0.0000 </r>
        <r>   10.2131    0.0000 </r>
       </set>
       <set comment="kpoint 31">
        <r>   -8.0464    1.0000 </r>
        <r>   -3.9233    1.0000 </r>
        <r>   -1.1834    1.0000 </r>
        <r>    0.1592    1.0000 </r>
        <r>    5.2910    0.0000 </r>
        <r>    7.2040    0.0000 </r>
        <r>    8.3634    0.0000 </r>
        <r>    9.5811    0.0000 </r>
       </set>
       <set comment="kpoint 32">
        <r>   -8.3257    1.0000 </r>
        <r>   -3.5398    1.0000 </r>
        <r>   -1.0275    1.0000 </r>
        <r>    0.5240    1.0000 </r>
        <r>    5.5071    0.0000 </r>
        <r>    6.9946    0.0000 </r>
        <r>    7.4597    0.0000 </r>
        <r>    9.7391    0.0000 </r>
       </set>
       <set comment="kpoint 33">
        <r>   -7.9648    1.0000 </r>
        <r>   -4.0286    1.0000 </r>
        <r>   -0.5443    1.0000 </r>
        <r>   -0.3360    1.0000 </r>
        <r>    4.6832    0.0000 </r>
        <r>    4.9598    0.0000 </r>
        <r>    9.7405    0.0000 </r>
        <r>   11.1694    0.0000 </r>
       </set>
       <set comment="kpoint 34">
        <r>   -7.8719    1.0000 </r>
        <r>   -4.0875    1.0000 </r>
        <r>   -1.0993    1.0000 </r>
        <r>   -0.2631    1.0000 </r>
        <r>    4.9823    0.0000 </r>
        <r>    6.4261    0.0000 </r>
        <r>    9.2340    0.0000 </r>
        <r>    9.5553    0.0000 </r>
       </set>
       <set comment="kpoint 35">
        <r>   -7.9057    1.0000 </r>
        <r>   -4.0041    1.0000 </r>
        <r>   -1.0826    1.0000 </r>
        <r>   -0.4899    1.0000 </r>
        <r>    6.3733    0.0000 </r>
        <r>    6.7099    0.0000 </r>
        <r>    7.5337    0.0000 </r>
        <r>    9.1635    0.0000 </r>
       </set>
      </set>
     </set>
    </array>
   </eigenvalues>
   <array>
    <dimension dim="1">ion</dimension>
    <dimension dim="2">band</dimension>
    <dimension dim="3">kpoint</dimension>
    <dimension dim="4">spin</dimension>
    <field>  s  </field>
    <field>  p  </field>
    <field>  d  </field>
    <set>
     <set comment="spin1">
      <set comment="kpoint 1">
       <set comment="band 1">
        <r>  0.2339  0.0000  0.0000 </r>
        <r>  0.4284  0.0000  0.0000 </r>
       </set>
       <set comment="band 2">
        <r>  0.0000  0.1269  0.0710 </r>
        <r>  0.0000  0.4546  0.0046 </r>
       </set>
       <set comment="band 3">
        <r>  0.0000  0.1269  0.0710 </r>
        <r>  0.0000  0.4546  0.0046 </r>
       </set>
       <set comment="band 4">
        <r>  0.0000  0.1269  0.0710 </r>
        <r>  0.0000  0.4546  0.0046 </r>
       </set>
       <set comment="band 5">
        <r>  0.4588  0.0000  0.0000 </r>
        <r>  0.3450  0.0000  0.0000 </r>
       </set>
       <set comment="band 6">
        <r>  0.0000  0.4794  0.0114 </r>
        <r>  0.0000  0.0381  0.0627 </r>
       </set>
       <set comment="band 7">
        <r>  0.0000  0.4794  0.0114 </r>
        <r>  0.0000  0.0381  0.0627 </r>
       </set>
       <set comment="band 8">
        <r>  0.0000  0.4794  0.0114 </r>
        <r>  0.0000  0.0381  0.0627 </r>
       </set>
      </set>
      <set comment="kpoint 2">
       <set comment="band 1">
        <r>  0.2264  0.0040  0.0005 </r>
        <r>  0.4330  0.0009  0.0000 </r>
       </set>
       <set comment="band 2">
        <r>  0.2163  0.0893  0.0343 </r>
        <r>  0.1454  0.2162  0.0043 </r>
       </set>
       <set comment="band 3">
        <r>  0.0000  0.1500  0.0629 </r>
        <r>  0.0000  0.4347  0.0052 </r>
       </set>
       <set comment="band 4">
        <r>  0.0000  0.1500  0.0629 </r>
        <r>  0.0000  0.4347  0.0052 </r>
       </set>
       <set comment="band 5">
        <r>  0.2591  0.0890  0.0163 </r>
        <r>  0.1757  0.1694  0.0051 </r>
       </set>
       <set comment="band 6">
        <r>  0.0000  0.4575  0.0186 </r>
        <r>  0.0000  0.0581  0.0617 </r>
       </set>
       <set comment="band 7">
        <r>  0.0000  0.4575  0.0186 </r>
        <r>  0.0000  0.0581  0.0617 </r>
       </set>
       <set comment="band 8">
        <r>  0.0307  0.3412  0.0283 </r>
        <r>  0.0224  0.1021  0.0503 </r>
       </set>
      </set>
      <set comment="kpoint 3">
       <set comment="band 1">
        <r>  0.2032  0.0151  0.0021 </r>
        <r>  0.4489  0.0029  0.0001 </r>
       </set>
       <set comment="band 2">
        <r>  0.2443  0.1007  0.0222 </r>
        <r>  0.1237  0.1836  0.0041 </r>
       </set>
       <set comment="band 3">
        <r>  0.0000  0.1877  0.0487 </r>
        <r>  0.0000  0.4051  0.0053 </r>
       </set>
       <set comment="band 4">
        <r>  0.0000  0.1877  0.0487 </r>
        <r>  0.0000  0.4051  0.0053 </r>
       </set>
       <set comment="band 5">
        <r>  0.2637  0.1251  0.0092 </r>
        <r>  0.1438  0.0883  0.0162 </r>
       </set>
       <set comment="band 6">
        <r>  0.0000  0.4070  0.0346 </r>
        <r>  0.0000  0.0814  0.0612 </r>
       </set>
       <set comment="band 7">
        <r>  0.0000  0.4070  0.0346 </r>
        <r>  0.0000  0.0814  0.0612 </r>
       </set>
       <set comment="band 8">
        <r>  0.0655  0.1856  0.0379 </r>
        <r>  0.0554  0.2133  0.0294 </r>
       </set>
      </set>
      <set comment="kpoint 4">
       <set comment="band 1">
        <r>  0.1640  0.0307  0.0052 </r>
        <r>  0.4816  0.0039  0.0003 </r>
       </set>
       <set comment="band 2">
        <r>  0.2880  0.0983  0.0102 </r>
        <r>  0.0871  0.1633  0.0031 </r>
       </set>
       <set comment="band 3">
        <r>  0.0000  0.2146  0.0377 </r>
        <r>  0.0000  0.3873  0.0044 </r>
       </set>
       <set comment="band 4">
        <r>  0.0000  0.2146  0.0377 </r>
        <r>  0.0000  0.3873  0.0044 </r>
       </set>
       <set comment="band 5">
        <r>  0.2804  0.1025  0.0150 </r>
        <r>  0.1384  0.0601  0.0202 </r>
       </set>
       <set comment="band 6">
        <r>  0.0000  0.3363  0.0560 </r>
        <r>  0.0000  0.0781  0.0637 </r>
       </set>
       <set comment="band 7">
        <r>  0.0000  0.3363  0.0560 </r>
        <r>  0.0000  0.0781  0.0637 </r>
       </set>
       <set comment="band 8">
        <r>  0.0396  0.1375  0.0396 </r>
        <r>  0.0388  0.2764  0.0158 </r>
       </set>
      </set>
      <set comment="kpoint 5">
       <set comment="band 1">
        <r>  0.1197  0.0444  0.0090 </r>
        <r>  0.5261  0.0019  0.0005 </r>
       </set>
       <set comment="band 2">
        <r>  0.3352  0.0903  0.0016 </r>
        <r>  0.0411  0.1560  0.0022 </r>
       </set>
       <set comment="band 3">
        <r>  0.0000  0.2278  0.0319 </r>
        <r>  0.0000  0.3799  0.0037 </r>
       </set>
       <set comment="band 4">
        <r>  0.0000  0.2278  0.0319 </r>
        <r>  0.0000  0.3799  0.0037 </r>
       </set>
       <set comment="band 5">
        <r>  0.2920  0.0842  0.0193 </r>
        <r>  0.1398  0.0516  0.0214 </r>
       </set>
       <set comment="band 6">
        <r>  0.0000  0.2916  0.0692 </r>
        <r>  0.0000  0.0689  0.0660 </r>
       </set>
       <set comment="band 7">
        <r>  0.0000  0.2916  0.0692 </r>
        <r>  0.0000  0.0689  0.0660 </r>
       </set>
       <set comment="band 8">
        <r>  0.0012  0.0695  0.0478 </r>
        <r>  0.0017  0.1488  0.0045 </r>
       </set>
      </set>
      <set comment="kpoint 6">
       <set comment="band 1">
        <r>  0.2237  0.0054  0.0006 </r>
        <r>  0.4345  0.0012  0.0000 </r>
       </set>
       <set comment="band 2">
        <r>  0.2574  0.0648  0.0350 </r>
        <r>  0.1703  0.1982  0.0041 </r>
       </set>
       <set comment="band 3">
        <r>  0.0000  0.1768  0.0530 </r>
        <r>  0.0000  0.4010  0.0060 </r>
       </set>
       <set comment="band 4">
        <r>  0.0000  0.1768  0.0530 </r>
        <r>  0.0000  0.4010  0.0060 </r>
       </set>
       <set comment="band 5">
        <r>  0.2417  0.0327  0.0324 </r>
        <r>  0.1416  0.2761  0.0003 </r>
       </set>
       <set comment="band 6">
        <r>  0.0150  0.4188  0.0096 </r>
        <r>  0.0278  0.0105  0.0533 </r>
       </set>
       <set comment="band 7">
        <r>  0.0000  0.4275  0.0288 </r>
        <r>  0.0000  0.0944  0.0619 </r>
       </set>
       <set comment="band 8">
        <r>  0.0000  0.4275  0.0288 </r>
        <r>  0.0000  0.0944  0.0619 </r>
       </set>
      </set>
      <set comment="kpoint 7">
       <set comment="band 1">
        <r>  0.2053  0.0143  0.0019 </r>
        <r>  0.4468  0.0029  0.0001 </r>
       </set>
       <set comment="band 2">
        <r>  0.2682  0.0810  0.0267 </r>
        <r>  0.1455  0.1820  0.0044 </r>
       </set>
       <set comment="band 3">
        <r>  0.0000  0.2070  0.0406 </r>
        <r>  0.0000  0.3733  0.0056 </r>
       </set>
       <set comment="band 4">
        <r>  0.0259  0.1904  0.0407 </r>
        <r>  0.0118  0.3533  0.0064 </r>
       </set>
       <set comment="band 5">
        <r>  0.2327  0.0654  0.0289 </r>
        <r>  0.0943  0.2335  0.0113 </r>
       </set>
       <set comment="band 6">
        <r>  0.0215  0.3774  0.0150 </r>
        <r>  0.0525  0.0390  0.0446 </r>
       </set>
       <set comment="band 7">
        <r>  0.0000  0.3892  0.0420 </r>
        <r>  0.0000  0.1209  0.0624 </r>
       </set>
       <set comment="band 8">
        <r>  0.0148  0.3051  0.0455 </r>
        <r>  0.0126  0.1479  0.0537 </r>
       </set>
      </set>
      <set comment="kpoint 8">
       <set comment="band 1">
        <r>  0.1701  0.0290  0.0045 </r>
        <r>  0.4744  0.0044  0.0002 </r>
       </set>
       <set comment="band 2">
        <r>  0.2980  0.0884  0.0146 </r>
        <r>  0.1067  0.1642  0.0037 </r>
       </set>
       <set comment="band 3">
        <r>  0.0501  0.1958  0.0309 </r>
        <r>  0.0208  0.3130  0.0064 </r>
       </set>
       <set comment="band 4">
        <r>  0.0000  0.2272  0.0315 </r>
        <r>  0.0000  0.3607  0.0046 </r>
       </set>
       <set comment="band 5">
        <r>  0.2104  0.1071  0.0275 </r>
        <r>  0.0919  0.1744  0.0184 </r>
       </set>
       <set comment="band 6">
        <r>  0.0263  0.3335  0.0330 </r>
        <r>  0.0273  0.0726  0.0482 </r>
       </set>
       <set comment="band 7">
        <r>  0.0000  0.3323  0.0599 </r>
        <r>  0.0000  0.1148  0.0648 </r>
       </set>
       <set comment="band 8">
        <r>  0.0229  0.1496  0.0703 </r>
        <r>  0.0211  0.1536  0.0483 </r>
       </set>
      </set>
      <set comment="kpoint 9">
       <set comment="band 1">
        <r>  0.1224  0.0447  0.0084 </r>
        <r>  0.5195  0.0032  0.0004 </r>
       </set>
       <set comment="band 2">
        <r>  0.3451  0.0835  0.0043 </r>
        <r>  0.0566  0.1547  0.0029 </r>
       </set>
       <set comment="band 3">
        <r>  0.0600  0.2000  0.0250 </r>
        <r>  0.0244  0.2932  0.0057 </r>
       </set>
       <set comment="band 4">
        <r>  0.0000  0.2367  0.0273 </r>
        <r>  0.0000  0.3597  0.0039 </r>
       </set>
       <set comment="band 5">
        <r>  0.2154  0.1107  0.0277 </r>
        <r>  0.0970  0.1489  0.0203 </r>
       </set>
       <set comment="band 6">
        <r>  0.0135  0.2611  0.0577 </r>
        <r>  0.0106  0.0714  0.0553 </r>
       </set>
       <set comment="band 7">
        <r>  0.0000  0.2870  0.0727 </r>
        <r>  0.0000  0.0949  0.0670 </r>
       </set>
       <set comment="band 8">
        <r>  0.0178  0.1536  0.0647 </r>
        <r>  0.0154  0.1888  0.0380 </r>
       </set>
      </set>
      <set comment="kpoint 10">
       <set comment="band 1">
        <r>  0.1013  0.0504  0.0103 </r>
        <r>  0.5417  0.0016  0.0005 </r>
       </set>
       <set comment="band 2">
        <r>  0.3664  0.0803  0.0008 </r>
        <r>  0.0331  0.1534  0.0027 </r>
       </set>
       <set comment="band 3">
        <r>  0.0590  0.2045  0.0223 </r>
        <r>  0.0235  0.2863  0.0052 </r>
       </set>
       <set comment="band 4">
        <r>  0.0000  0.2353  0.0284 </r>
        <r>  0.0000  0.3678  0.0038 </r>
       </set>
       <set comment="band 5">
        <r>  0.2226  0.1121  0.0264 </r>
        <r>  0.1016  0.1373  0.0206 </r>
       </set>
       <set comment="band 6">
        <r>  0.0088  0.2298  0.0671 </r>
        <r>  0.0069  0.0745  0.0574 </r>
       </set>
       <set comment="band 7">
        <r>  0.0000  0.2839  0.0719 </r>
        <r>  0.0000  0.0829  0.0662 </r>
       </set>
       <set comment="band 8">
        <r>  0.0068  0.1448  0.0504 </r>
        <r>  0.0033  0.2343  0.0158 </r>
       </set>
      </set>
      <set comment="kpoint 11">
       <set comment="band 1">
        <r>  0.1390  0.0396  0.0071 </r>
        <r>  0.5033  0.0039  0.0004 </r>
       </set>
       <set comment="band 2">
        <r>  0.3286  0.0864  0.0072 </r>
        <r>  0.0739  0.1565  0.0032 </r>
       </set>
       <set comment="band 3">
        <r>  0.0494  0.2090  0.0227 </r>
        <r>  0.0186  0.2894  0.0054 </r>
       </set>
       <set comment="band 4">
        <r>  0.0000  0.2215  0.0350 </r>
        <r>  0.0000  0.3844  0.0043 </r>
       </set>
       <set comment="band 5">
        <r>  0.2257  0.1200  0.0226 </r>
        <r>  0.1050  0.1367  0.0196 </r>
       </set>
       <set comment="band 6">
        <r>  0.0086  0.2460  0.0653 </r>
        <r>  0.0079  0.0846  0.0578 </r>
       </set>
       <set comment="band 7">
        <r>  0.0000  0.3279  0.0573 </r>
        <r>  0.0000  0.0798  0.0628 </r>
       </set>
       <set comment="band 8">
        <r>  0.0335  0.1460  0.0475 </r>
        <r>  0.0275  0.2432  0.0270 </r>
       </set>
      </set>
      <set comment="kpoint 12">
       <set comment="band 1">
        <r>  0.1841  0.0234  0.0035 </r>
        <r>  0.4631  0.0040  0.0002 </r>
       </set>
       <set comment="band 2">
        <r>  0.2844  0.0891  0.0183 </r>
        <r>  0.1209  0.1694  0.0040 </r>
       </set>
       <set comment="band 3">
        <r>  0.0315  0.2122  0.0271 </r>
        <r>  0.0093  0.3057  0.0062 </r>
       </set>
       <set comment="band 4">
        <r>  0.0000  0.1939  0.0466 </r>
        <r>  0.0000  0.4099  0.0049 </r>
       </set>
       <set comment="band 5">
        <r>  0.2295  0.1288  0.0164 </r>
        <r>  0.1130  0.1521  0.0159 </r>
       </set>
       <set comment="band 6">
        <r>  0.0000  0.4044  0.0341 </r>
        <r>  0.0000  0.0740  0.0595 </r>
       </set>
       <set comment="band 7">
        <r>  0.0261  0.2843  0.0503 </r>
        <r>  0.0250  0.1074  0.0515 </r>
       </set>
       <set comment="band 8">
        <r>  0.0309  0.1827  0.0483 </r>
        <r>  0.0270  0.1945  0.0396 </r>
       </set>
      </set>
      <set comment="kpoint 13">
       <set comment="band 1">
        <r>  0.2135  0.0104  0.0013 </r>
        <r>  0.4414  0.0022  0.0001 </r>
       </set>
       <set comment="band 2">
        <r>  0.2514  0.0847  0.0289 </r>
        <r>  0.1482  0.1907  0.0043 </r>
       </set>
       <set comment="band 3">
        <r>  0.0112  0.2017  0.0392 </r>
        <r>  0.0009  0.3487  0.0070 </r>
       </set>
       <set comment="band 4">
        <r>  0.0000  0.1593  0.0595 </r>
        <r>  0.0000  0.4371  0.0049 </r>
       </set>
       <set comment="band 5">
        <r>  0.2432  0.1079  0.0144 </r>
        <r>  0.1417  0.1862  0.0077 </r>
       </set>
       <set comment="band 6">
        <r>  0.0326  0.3044  0.0366 </r>
        <r>  0.0277  0.0933  0.0491 </r>
       </set>
       <set comment="band 7">
        <r>  0.0000  0.4535  0.0196 </r>
        <r>  0.0000  0.0541  0.0603 </r>
       </set>
       <set comment="band 8">
        <r>  0.0112  0.3376  0.0379 </r>
        <r>  0.0130  0.1538  0.0534 </r>
       </set>
      </set>
      <set comment="kpoint 14">
       <set comment="band 1">
        <r>  0.1906  0.0213  0.0028 </r>
        <r>  0.4564  0.0040  0.0001 </r>
       </set>
       <set comment="band 2">
        <r>  0.3232  0.0544  0.0268 </r>
        <r>  0.1569  0.1659  0.0047 </r>
       </set>
       <set comment="band 3">
        <r>  0.0000  0.2289  0.0302 </r>
        <r>  0.0000  0.3477  0.0049 </r>
       </set>
       <set comment="band 4">
        <r>  0.0000  0.2289  0.0302 </r>
        <r>  0.0000  0.3477  0.0049 </r>
       </set>
       <set comment="band 5">
        <r>  0.1555  0.1515  0.0361 </r>
        <r>  0.0017  0.1030  0.0394 </r>
       </set>
       <set comment="band 6">
        <r>  0.0960  0.2044  0.0186 </r>
        <r>  0.1210  0.1581  0.0145 </r>
       </set>
       <set comment="band 7">
        <r>  0.0000  0.3699  0.0500 </r>
        <r>  0.0000  0.1549  0.0633 </r>
       </set>
       <set comment="band 8">
        <r>  0.0000  0.3699  0.0500 </r>
        <r>  0.0000  0.1549  0.0633 </r>
       </set>
      </set>
      <set comment="kpoint 15">
       <set comment="band 1">
        <r>  0.1576  0.0349  0.0051 </r>
        <r>  0.4814  0.0053  0.0002 </r>
       </set>
       <set comment="band 2">
        <r>  0.3583  0.0548  0.0185 </r>
        <r>  0.1265  0.1550  0.0045 </r>
       </set>
       <set comment="band 3">
        <r>  0.0204  0.2294  0.0217 </r>
        <r>  0.0057  0.3063  0.0049 </r>
       </set>
       <set comment="band 4">
        <r>  0.0000  0.2440  0.0225 </r>
        <r>  0.0000  0.3356  0.0039 </r>
       </set>
       <set comment="band 5">
        <r>  0.1340  0.1408  0.0432 </r>
        <r>  0.0151  0.1117  0.0377 </r>
       </set>
       <set comment="band 6">
        <r>  0.0978  0.1777  0.0309 </r>
        <r>  0.0826  0.1384  0.0227 </r>
       </set>
       <set comment="band 7">
        <r>  0.0103  0.2232  0.0768 </r>
        <r>  0.0190  0.1103  0.0610 </r>
       </set>
       <set comment="band 8">
        <r>  0.0000  0.3335  0.0624 </r>
        <r>  0.0000  0.1592  0.0652 </r>
       </set>
      </set>
      <set comment="kpoint 16">
       <set comment="band 1">
        <r>  0.1074  0.0516  0.0089 </r>
        <r>  0.5261  0.0044  0.0003 </r>
       </set>
       <set comment="band 2">
        <r>  0.4061  0.0535  0.0082 </r>
        <r>  0.0741  0.1477  0.0043 </r>
       </set>
       <set comment="band 3">
        <r>  0.0412  0.2177  0.0167 </r>
        <r>  0.0128  0.2689  0.0045 </r>
       </set>
       <set comment="band 4">
        <r>  0.0000  0.2512  0.0190 </r>
        <r>  0.0000  0.3341  0.0032 </r>
       </set>
       <set comment="band 5">
        <r>  0.1321  0.1274  0.0459 </r>
        <r>  0.0435  0.1092  0.0332 </r>
       </set>
       <set comment="band 6">
        <r>  0.1017  0.1594  0.0347 </r>
        <r>  0.0426  0.1924  0.0288 </r>
       </set>
       <set comment="band 7">
        <r>  0.0031  0.2063  0.0851 </r>
        <r>  0.0279  0.0709  0.0593 </r>
       </set>
       <set comment="band 8">
        <r>  0.0000  0.2850  0.0762 </r>
        <r>  0.0000  0.1365  0.0684 </r>
       </set>
      </set>
      <set comment="kpoint 17">
       <set comment="band 1">
        <r>  0.0686  0.0620  0.0120 </r>
        <r>  0.5653  0.0019  0.0004 </r>
       </set>
       <set comment="band 2">
        <r>  0.4448  0.0503  0.0018 </r>
        <r>  0.0308  0.1460  0.0043 </r>
       </set>
       <set comment="band 3">
        <r>  0.0457  0.2130  0.0139 </r>
        <r>  0.0151  0.2530  0.0035 </r>
       </set>
       <set comment="band 4">
        <r>  0.0000  0.2502  0.0202 </r>
        <r>  0.0000  0.3415  0.0033 </r>
       </set>
       <set comment="band 5">
        <r>  0.1457  0.1275  0.0434 </r>
        <r>  0.0558  0.1050  0.0316 </r>
       </set>
       <set comment="band 6">
        <r>  0.0788  0.1389  0.0427 </r>
        <r>  0.0274  0.2027  0.0372 </r>
       </set>
       <set comment="band 7">
        <r>  0.0000  0.2754  0.0753 </r>
        <r>  0.0000  0.1215  0.0670 </r>
       </set>
       <set comment="band 8">
        <r>  0.0141  0.2070  0.0821 </r>
        <r>  0.0260  0.1169  0.0490 </r>
       </set>
      </set>
      <set comment="kpoint 18">
       <set comment="band 1">
        <r>  0.0944  0.0544  0.0102 </r>
        <r>  0.5412  0.0034  0.0003 </r>
       </set>
       <set comment="band 2">
        <r>  0.4207  0.0558  0.0048 </r>
        <r>  0.0567  0.1459  0.0045 </r>
       </set>
       <set comment="band 3">
        <r>  0.0367  0.2176  0.0128 </r>
        <r>  0.0100  0.2521  0.0033 </r>
       </set>
       <set comment="band 4">
        <r>  0.0000  0.2399  0.0262 </r>
        <r>  0.0000  0.3580  0.0040 </r>
       </set>
       <set comment="band 5">
        <r>  0.1673  0.1367  0.0359 </r>
        <r>  0.0662  0.1163  0.0288 </r>
       </set>
       <set comment="band 6">
        <r>  0.0531  0.1444  0.0510 </r>
        <r>  0.0228  0.1717  0.0431 </r>
       </set>
       <set comment="band 7">
        <r>  0.0000  0.3160  0.0589 </r>
        <r>  0.0000  0.1171  0.0612 </r>
       </set>
       <set comment="band 8">
        <r>  0.0403  0.1644  0.0611 </r>
        <r>  0.0359  0.2192  0.0319 </r>
       </set>
      </set>
      <set comment="kpoint 19">
       <set comment="band 1">
        <r>  0.1465  0.0378  0.0063 </r>
        <r>  0.4937  0.0048  0.0003 </r>
       </set>
       <set comment="band 2">
        <r>  0.3585  0.0676  0.0128 </r>
        <r>  0.1059  0.1526  0.0044 </r>
       </set>
       <set comment="band 3">
        <r>  0.0286  0.2233  0.0154 </r>
        <r>  0.0034  0.2654  0.0045 </r>
       </set>
       <set comment="band 4">
        <r>  0.0000  0.2193  0.0361 </r>
        <r>  0.0000  0.3840  0.0047 </r>
       </set>
       <set comment="band 5">
        <r>  0.2012  0.1440  0.0230 </r>
        <r>  0.0839  0.1470  0.0221 </r>
       </set>
       <set comment="band 6">
        <r>  0.0472  0.2155  0.0563 </r>
        <r>  0.0345  0.1378  0.0515 </r>
       </set>
       <set comment="band 7">
        <r>  0.0000  0.3756  0.0409 </r>
        <r>  0.0000  0.1012  0.0576 </r>
       </set>
       <set comment="band 8">
        <r>  0.0213  0.1340  0.0582 </r>
        <r>  0.0261  0.1760  0.0332 </r>
       </set>
      </set>
      <set comment="kpoint 20">
       <set comment="band 1">
        <r>  0.1250  0.0476  0.0070 </r>
        <r>  0.5058  0.0058  0.0002 </r>
       </set>
       <set comment="band 2">
        <r>  0.4120  0.0348  0.0159 </r>
        <r>  0.1086  0.1469  0.0046 </r>
       </set>
       <set comment="band 3">
        <r>  0.0000  0.2563  0.0153 </r>
        <r>  0.0000  0.3220  0.0027 </r>
       </set>
       <set comment="band 4">
        <r>  0.0000  0.2563  0.0153 </r>
        <r>  0.0000  0.3220  0.0027 </r>
       </set>
       <set comment="band 5">
        <r>  0.1215  0.1490  0.0427 </r>
        <r>  0.0200  0.0588  0.0395 </r>
       </set>
       <set comment="band 6">
        <r>  0.0954  0.1095  0.0530 </r>
        <r>  0.0558  0.1024  0.0308 </r>
       </set>
       <set comment="band 7">
        <r>  0.0000  0.3405  0.0613 </r>
        <r>  0.0000  0.1941  0.0619 </r>
       </set>
       <set comment="band 8">
        <r>  0.0000  0.3405  0.0613 </r>
        <r>  0.0000  0.1941  0.0619 </r>
       </set>
      </set>
      <set comment="kpoint 21">
       <set comment="band 1">
        <r>  0.0728  0.0646  0.0104 </r>
        <r>  0.5507  0.0042  0.0002 </r>
       </set>
       <set comment="band 2">
        <r>  0.4736  0.0223  0.0091 </r>
        <r>  0.0630  0.1423  0.0048 </r>
       </set>
       <set comment="band 3">
        <r>  0.0084  0.2497  0.0111 </r>
        <r>  0.0012  0.2875  0.0028 </r>
       </set>
       <set comment="band 4">
        <r>  0.0000  0.2624  0.0118 </r>
        <r>  0.0000  0.3182  0.0021 </r>
       </set>
       <set comment="band 5">
        <r>  0.1015  0.1362  0.0507 </r>
        <r>  0.0311  0.0672  0.0376 </r>
       </set>
       <set comment="band 6">
        <r>  0.1014  0.1053  0.0552 </r>
        <r>  0.0374  0.1135  0.0348 </r>
       </set>
       <set comment="band 7">
        <r>  0.0333  0.2327  0.0595 </r>
        <r>  0.0317  0.1790  0.0479 </r>
       </set>
       <set comment="band 8">
        <r>  0.0000  0.3085  0.0699 </r>
        <r>  0.0000  0.1873  0.0630 </r>
       </set>
      </set>
      <set comment="kpoint 22">
       <set comment="band 1">
        <r>  0.0264  0.0766  0.0139 </r>
        <r>  0.5958  0.0012  0.0002 </r>
       </set>
       <set comment="band 2">
        <r>  0.5338  0.0130  0.0029 </r>
        <r>  0.0177  0.1401  0.0054 </r>
       </set>
       <set comment="band 3">
        <r>  0.0070  0.2386  0.0088 </r>
        <r>  0.0015  0.2568  0.0021 </r>
       </set>
       <set comment="band 4">
        <r>  0.0000  0.2620  0.0127 </r>
        <r>  0.0000  0.3226  0.0022 </r>
       </set>
       <set comment="band 5">
        <r>  0.1070  0.1214  0.0534 </r>
        <r>  0.0403  0.0678  0.0364 </r>
       </set>
       <set comment="band 6">
        <r>  0.0939  0.1050  0.0549 </r>
        <r>  0.0201  0.1822  0.0376 </r>
       </set>
       <set comment="band 7">
        <r>  0.0323  0.2459  0.0569 </r>
        <r>  0.0399  0.1415  0.0433 </r>
       </set>
       <set comment="band 8">
        <r>  0.0000  0.2881  0.0684 </r>
        <r>  0.0000  0.1716  0.0628 </r>
       </set>
      </set>
      <set comment="kpoint 23">
       <set comment="band 1">
        <r>  0.0408  0.0709  0.0136 </r>
        <r>  0.5867  0.0015  0.0002 </r>
       </set>
       <set comment="band 2">
        <r>  0.5208  0.0223  0.0022 </r>
        <r>  0.0247  0.1389  0.0058 </r>
       </set>
       <set comment="band 3">
        <r>  0.0046  0.2324  0.0087 </r>
        <r>  0.0015  0.2476  0.0016 </r>
       </set>
       <set comment="band 4">
        <r>  0.0000  0.2545  0.0178 </r>
        <r>  0.0000  0.3354  0.0030 </r>
       </set>
       <set comment="band 5">
        <r>  0.1232  0.1276  0.0491 </r>
        <r>  0.0464  0.0786  0.0351 </r>
       </set>
       <set comment="band 6">
        <r>  0.1176  0.0343  0.0287 </r>
        <r>  0.0009  0.3243  0.0356 </r>
       </set>
       <set comment="band 7">
        <r>  0.0000  0.3071  0.0572 </r>
        <r>  0.0000  0.1583  0.0592 </r>
       </set>
       <set comment="band 8">
        <r>  0.0016  0.3821  0.0691 </r>
        <r>  0.0891  0.0790  0.0061 </r>
       </set>
      </set>
      <set comment="kpoint 24">
       <set comment="band 1">
        <r>  0.0252  0.0798  0.0130 </r>
        <r>  0.5906  0.0018  0.0002 </r>
       </set>
       <set comment="band 2">
        <r>  0.5239  0.0067  0.0056 </r>
        <r>  0.0227  0.1426  0.0046 </r>
       </set>
       <set comment="band 3">
        <r>  0.0000  0.2681  0.0080 </r>
        <r>  0.0000  0.3118  0.0013 </r>
       </set>
       <set comment="band 4">
        <r>  0.0000  0.2681  0.0080 </r>
        <r>  0.0000  0.3118  0.0013 </r>
       </set>
       <set comment="band 5">
        <r>  0.0795  0.1466  0.0524 </r>
        <r>  0.0407  0.0393  0.0370 </r>
       </set>
       <set comment="band 6">
        <r>  0.1289  0.0681  0.0593 </r>
        <r>  0.0286  0.0859  0.0376 </r>
       </set>
       <set comment="band 7">
        <r>  0.0000  0.3586  0.0526 </r>
        <r>  0.0000  0.2434  0.0424 </r>
       </set>
       <set comment="band 8">
        <r>  0.0000  0.3586  0.0526 </r>
        <r>  0.0000  0.2434  0.0424 </r>
       </set>
      </set>
      <set comment="kpoint 25">
       <set comment="band 1">
        <r>  0.0006  0.0861  0.0147 </r>
        <r>  0.6141  0.0000  0.0002 </r>
       </set>
       <set comment="band 2">
        <r>  0.5561  0.0005  0.0031 </r>
        <r>  0.0002  0.1421  0.0049 </r>
       </set>
       <set comment="band 3">
        <r>  0.0038  0.2556  0.0077 </r>
        <r>  0.0004  0.2820  0.0019 </r>
       </set>
       <set comment="band 4">
        <r>  0.0000  0.2680  0.0083 </r>
        <r>  0.0000  0.3132  0.0014 </r>
       </set>
       <set comment="band 5">
        <r>  0.0863  0.1252  0.0563 </r>
        <r>  0.0418  0.0514  0.0365 </r>
       </set>
       <set comment="band 6">
        <r>  0.1122  0.0974  0.0568 </r>
        <r>  0.0239  0.1121  0.0380 </r>
       </set>
       <set comment="band 7">
        <r>  0.0321  0.2982  0.0244 </r>
        <r>  0.0154  0.2358  0.0360 </r>
       </set>
       <set comment="band 8">
        <r>  0.0000  0.3352  0.0517 </r>
        <r>  0.0000  0.2308  0.0456 </r>
       </set>
      </set>
      <set comment="kpoint 26">
       <set comment="band 1">
        <r>  0.1801  0.0254  0.0036 </r>
        <r>  0.4651  0.0044  0.0002 </r>
       </set>
       <set comment="band 2">
        <r>  0.3156  0.0705  0.0209 </r>
        <r>  0.1358  0.1643  0.0044 </r>
       </set>
       <set comment="band 3">
        <r>  0.0190  0.2254  0.0233 </r>
        <r>  0.0019  0.3023  0.0057 </r>
       </set>
       <set comment="band 4">
        <r>  0.0095  0.2112  0.0365 </r>
        <r>  0.0050  0.3655  0.0053 </r>
       </set>
       <set comment="band 5">
        <r>  0.2468  0.0255  0.0374 </r>
        <r>  0.0448  0.2633  0.0175 </r>
       </set>
       <set comment="band 6">
        <r>  0.0008  0.3842  0.0164 </r>
        <r>  0.0851  0.0216  0.0385 </r>
       </set>
       <set comment="band 7">
        <r>  0.0044  0.2076  0.0676 </r>
        <r>  0.0000  0.1144  0.0618 </r>
       </set>
       <set comment="band 8">
        <r>  0.0045  0.3490  0.0545 </r>
        <r>  0.0083  0.1367  0.0574 </r>
       </set>
      </set>
      <set comment="kpoint 27">
       <set comment="band 1">
        <r>  0.1369  0.0414  0.0069 </r>
        <r>  0.5016  0.0048  0.0003 </r>
       </set>
       <set comment="band 2">
        <r>  0.3633  0.0672  0.0111 </r>
        <r>  0.0946  0.1523  0.0042 </r>
       </set>
       <set comment="band 3">
        <r>  0.0384  0.2189  0.0172 </r>
        <r>  0.0102  0.2722  0.0047 </r>
       </set>
       <set comment="band 4">
        <r>  0.0067  0.2298  0.0283 </r>
        <r>  0.0028  0.3473  0.0048 </r>
       </set>
       <set comment="band 5">
        <r>  0.1986  0.0994  0.0331 </r>
        <r>  0.0654  0.1997  0.0216 </r>
       </set>
       <set comment="band 6">
        <r>  0.0260  0.2889  0.0407 </r>
        <r>  0.0418  0.0780  0.0430 </r>
       </set>
       <set comment="band 7">
        <r>  0.0163  0.1632  0.0659 </r>
        <r>  0.0048  0.1245  0.0558 </r>
       </set>
       <set comment="band 8">
        <r>  0.0050  0.2833  0.0772 </r>
        <r>  0.0140  0.1288  0.0600 </r>
       </set>
      </set>
      <set comment="kpoint 28">
       <set comment="band 1">
        <r>  0.0880  0.0559  0.0108 </r>
        <r>  0.5487  0.0026  0.0004 </r>
       </set>
       <set comment="band 2">
        <r>  0.4099  0.0620  0.0027 </r>
        <r>  0.0417  0.1485  0.0038 </r>
       </set>
       <set comment="band 3">
        <r>  0.0561  0.2077  0.0162 </r>
        <r>  0.0192  0.2593  0.0042 </r>
       </set>
       <set comment="band 4">
        <r>  0.0020  0.2427  0.0229 </r>
        <r>  0.0005  0.3372  0.0042 </r>
       </set>
       <set comment="band 5">
        <r>  0.1928  0.1127  0.0336 </r>
        <r>  0.0728  0.1783  0.0228 </r>
       </set>
       <set comment="band 6">
        <r>  0.0065  0.2133  0.0636 </r>
        <r>  0.0164  0.0704  0.0519 </r>
       </set>
       <set comment="band 7">
        <r>  0.0246  0.2417  0.0543 </r>
        <r>  0.0019  0.1645  0.0577 </r>
       </set>
       <set comment="band 8">
        <r>  0.0161  0.1984  0.0861 </r>
        <r>  0.0229  0.1488  0.0486 </r>
       </set>
      </set>
      <set comment="kpoint 29">
       <set comment="band 1">
        <r>  0.1150  0.0502  0.0080 </r>
        <r>  0.5164  0.0053  0.0002 </r>
       </set>
       <set comment="band 2">
        <r>  0.4198  0.0400  0.0124 </r>
        <r>  0.0953  0.1456  0.0047 </r>
       </set>
       <set comment="band 3">
        <r>  0.0165  0.2389  0.0138 </r>
        <r>  0.0021  0.2842  0.0036 </r>
       </set>
       <set comment="band 4">
        <r>  0.0038  0.2474  0.0182 </r>
        <r>  0.0012  0.3155  0.0039 </r>
       </set>
       <set comment="band 5">
        <r>  0.1151  0.1363  0.0502 </r>
        <r>  0.0111  0.1259  0.0389 </r>
       </set>
       <set comment="band 6">
        <r>  0.0978  0.1429  0.0426 </r>
        <r>  0.0677  0.1251  0.0271 </r>
       </set>
       <set comment="band 7">
        <r>  0.0164  0.2216  0.0699 </r>
        <r>  0.0243  0.1119  0.0572 </r>
       </set>
       <set comment="band 8">
        <r>  0.0031  0.3401  0.0636 </r>
        <r>  0.0045  0.1850  0.0596 </r>
       </set>
      </set>
      <set comment="kpoint 30">
       <set comment="band 1">
        <r>  0.0600  0.0665  0.0120 </r>
        <r>  0.5670  0.0029  0.0002 </r>
       </set>
       <set comment="band 2">
        <r>  0.4882  0.0278  0.0049 </r>
        <r>  0.0441  0.1410  0.0052 </r>
       </set>
       <set comment="band 3">
        <r>  0.0208  0.2293  0.0115 </r>
        <r>  0.0050  0.2607  0.0027 </r>
       </set>
       <set comment="band 4">
        <r>  0.0018  0.2528  0.0147 </r>
        <r>  0.0002  0.3038  0.0036 </r>
       </set>
       <set comment="band 5">
        <r>  0.1148  0.1220  0.0521 </r>
        <r>  0.0340  0.1298  0.0347 </r>
       </set>
       <set comment="band 6">
        <r>  0.1008  0.1207  0.0474 </r>
        <r>  0.0331  0.1934  0.0317 </r>
       </set>
       <set comment="band 7">
        <r>  0.0052  0.2342  0.0706 </r>
        <r>  0.0273  0.0756  0.0570 </r>
       </set>
       <set comment="band 8">
        <r>  0.0107  0.3126  0.0612 </r>
        <r>  0.0113  0.1681  0.0565 </r>
       </set>
      </set>
      <set comment="kpoint 31">
       <set comment="band 1">
        <r>  0.0407  0.0709  0.0136 </r>
        <r>  0.5869  0.0015  0.0002 </r>
       </set>
       <set comment="band 2">
        <r>  0.5133  0.0255  0.0019 </r>
        <r>  0.0229  0.1400  0.0056 </r>
       </set>
       <set comment="band 3">
        <r>  0.0170  0.2262  0.0105 </r>
        <r>  0.0052  0.2509  0.0021 </r>
       </set>
       <set comment="band 4">
        <r>  0.0031  0.2507  0.0159 </r>
        <r>  0.0007  0.3070  0.0038 </r>
       </set>
       <set comment="band 5">
        <r>  0.1317  0.1183  0.0493 </r>
        <r>  0.0413  0.1422  0.0326 </r>
       </set>
       <set comment="band 6">
        <r>  0.0572  0.1443  0.0546 </r>
        <r>  0.0242  0.1731  0.0412 </r>
       </set>
       <set comment="band 7">
        <r>  0.0516  0.1628  0.0495 </r>
        <r>  0.0136  0.2143  0.0438 </r>
       </set>
       <set comment="band 8">
        <r>  0.0012  0.3543  0.0671 </r>
        <r>  0.0349  0.0247  0.0532 </r>
       </set>
      </set>
      <set comment="kpoint 32">
       <set comment="band 1">
        <r>  0.0851  0.0581  0.0106 </r>
        <r>  0.5468  0.0037  0.0003 </r>
       </set>
       <set comment="band 2">
        <r>  0.4562  0.0401  0.0061 </r>
        <r>  0.0619  0.1418  0.0052 </r>
       </set>
       <set comment="band 3">
        <r>  0.0188  0.2274  0.0110 </r>
        <r>  0.0030  0.2542  0.0027 </r>
       </set>
       <set comment="band 4">
        <r>  0.0052  0.2420  0.0213 </r>
        <r>  0.0017  0.3228  0.0045 </r>
       </set>
       <set comment="band 5">
        <r>  0.1740  0.1053  0.0404 </r>
        <r>  0.0483  0.1866  0.0270 </r>
       </set>
       <set comment="band 6">
        <r>  0.0048  0.2806  0.0566 </r>
        <r>  0.0475  0.0848  0.0413 </r>
       </set>
       <set comment="band 7">
        <r>  0.0540  0.0979  0.0545 </r>
        <r>  0.0013  0.1702  0.0517 </r>
       </set>
       <set comment="band 8">
        <r>  0.0083  0.3376  0.0669 </r>
        <r>  0.0209  0.1575  0.0496 </r>
       </set>
      </set>
      <set comment="kpoint 33">
       <set comment="band 1">
        <r>  0.0219  0.0793  0.0137 </r>
        <r>  0.5963  0.0015  0.0002 </r>
       </set>
       <set comment="band 2">
        <r>  0.5378  0.0069  0.0042 </r>
        <r>  0.0191  0.1406  0.0052 </r>
       </set>
       <set comment="band 3">
        <r>  0.0088  0.2442  0.0106 </r>
        <r>  0.0010  0.2843  0.0019 </r>
       </set>
       <set comment="band 4">
        <r>  0.0000  0.2635  0.0083 </r>
        <r>  0.0002  0.2876  0.0028 </r>
       </set>
       <set comment="band 5">
        <r>  0.0597  0.1593  0.0569 </r>
        <r>  0.0379  0.0814  0.0361 </r>
       </set>
       <set comment="band 6">
        <r>  0.1320  0.0772  0.0550 </r>
        <r>  0.0246  0.1300  0.0374 </r>
       </set>
       <set comment="band 7">
        <r>  0.0253  0.2376  0.0624 </r>
        <r>  0.0258  0.1626  0.0498 </r>
       </set>
       <set comment="band 8">
        <r>  0.0196  0.3220  0.0333 </r>
        <r>  0.0071  0.2197  0.0442 </r>
       </set>
      </set>
      <set comment="kpoint 34">
       <set comment="band 1">
        <r>  0.0053  0.0825  0.0153 </r>
        <r>  0.6143  0.0002  0.0001 </r>
       </set>
       <set comment="band 2">
        <r>  0.5690  0.0031  0.0016 </r>
        <r>  0.0027  0.1385  0.0059 </r>
       </set>
       <set comment="band 3">
        <r>  0.0007  0.2388  0.0093 </r>
        <r>  0.0000  0.2596  0.0017 </r>
       </set>
       <set comment="band 4">
        <r>  0.0031  0.2570  0.0104 </r>
        <r>  0.0008  0.2896  0.0030 </r>
       </set>
       <set comment="band 5">
        <r>  0.0963  0.1233  0.0561 </r>
        <r>  0.0349  0.1087  0.0360 </r>
       </set>
       <set comment="band 6">
        <r>  0.0968  0.0987  0.0565 </r>
        <r>  0.0182  0.1871  0.0380 </r>
       </set>
       <set comment="band 7">
        <r>  0.0006  0.2637  0.0727 </r>
        <r>  0.0464  0.1371  0.0333 </r>
       </set>
       <set comment="band 8">
        <r>  0.0453  0.2286  0.0486 </r>
        <r>  0.0051  0.1257  0.0702 </r>
       </set>
      </set>
      <set comment="kpoint 35">
       <set comment="band 1">
        <r>  0.0137  0.0795  0.0150 </r>
        <r>  0.6079  0.0007  0.0001 </r>
       </set>
       <set comment="band 2">
        <r>  0.5650  0.0063  0.0015 </r>
        <r>  0.0101  0.1371  0.0062 </r>
       </set>
       <set comment="band 3">
        <r>  0.0037  0.2297  0.0116 </r>
        <r>  0.0009  0.2622  0.0015 </r>
       </set>
       <set comment="band 4">
        <r>  0.0012  0.2569  0.0093 </r>
        <r>  0.0001  0.2716  0.0038 </r>
       </set>
       <set comment="band 5">
        <r>  0.1943  0.0123  0.0469 </r>
        <r>  0.0016  0.2852  0.0330 </r>
       </set>
       <set comment="band 6">
        <r>  0.0207  0.1626  0.0703 </r>
        <r>  0.0455  0.1346  0.0326 </r>
       </set>
       <set comment="band 7">
        <r>  0.0019  0.2726  0.0586 </r>
        <r>  0.0398  0.0483  0.0528 </r>
       </set>
       <set comment="band 8">
        <r>  0.0177  0.2580  0.0664 </r>
        <r>  0.0197  0.0808  0.0612 </r>
       </set>
      </set>
     </set>
    </set>
   </array>
  </projected>
 </calculation>
 <structure name="finalpos" >
  <crystal>
   <varray name="basis" >
    <v>       0.00000000       2.88055050       2.88055050 </v>
    <v>       2.88055050       0.00000000       2.88055050 </v>
    <v>       2.88055050       2.88055050       0.00000000 </v>
   </varray>
   <i name="volume">     47.80314583 </i>
   <varray name="rec_basis" >
    <v>      -0.17357793       0.17357793       0.17357793 </v>
    <v>       0.17357793      -0.17357793       0.17357793 </v>
    <v>       0.17357793       0.17357793      -0.17357793 </v>
   </varray>
  </crystal>
  <varray name="positions" >
   <v>       0.00000000       0.00000000       0.00000000 </v>
   <v>       0.25000000       0.25000000       0.25000000 </v>
  </varray>
 </structure>
</modeling>
