   2   2   1   0
  0.2995008E+02  0.4391852E-09  0.4391852E-09  0.4391852E-09  0.5000000E-15
  1.000000000000000E-004
  CAR 
 InAs                                    
     12.36299626     -9.73373395   11      2.63102386      1.00000000
     -9.734  0.0000E+00  0.0000E+00
     -7.524  0.4739E-03  0.1109E-01
     -5.314  0.0000E+00  0.2000E-01
     -3.105  0.0000E+00  0.2000E-01
     -0.895  0.1414E-03  0.3801E-01
      1.315  0.7977E-03  0.6680E-01
      3.524  0.2150E-03  0.8051E-01
      5.734  0.4243E-03  0.1036E+00
      7.944  0.7730E-03  0.1341E+00
     10.153  0.0000E+00  0.1574E+00
     12.363  0.0000E+00  0.1600E+00
     12.36299626     -9.73373395   11      2.63102386      1.00000000
     -9.734  0.0000E+00  0.0000E+00  0.0000E+00
     -7.524  0.4011E-02  0.3072E-02  0.6465E-03
     -5.314  0.0000E+00  0.0000E+00  0.0000E+00
     -3.105  0.0000E+00  0.0000E+00  0.0000E+00
     -0.895  0.4557E-02  0.1397E-02  0.3582E-03
      1.315  0.2231E-02  0.1982E-01  0.2870E-02
      3.524  0.5204E-02  0.2561E-02  0.5475E-03
      5.734  0.7357E-02  0.5488E-02  0.2376E-02
      7.944  0.1106E-02  0.2021E-01  0.6353E-02
     10.153  0.0000E+00  0.0000E+00  0.0000E+00
     12.363  0.0000E+00  0.0000E+00  0.0000E+00
     12.36299626     -9.73373395   11      2.63102386      1.00000000
     -9.734  0.0000E+00  0.0000E+00  0.0000E+00
     -7.524  0.2671E-01  0.4873E-04  0.9557E-05
     -5.314  0.0000E+00  0.0000E+00  0.0000E+00
     -3.105  0.0000E+00  0.0000E+00  0.0000E+00
     -0.895  0.1468E-02  0.2264E-02  0.3279E-04
      1.315  0.6905E-03  0.2519E-01  0.2291E-03
      3.524  0.2639E-02  0.3152E-02  0.1627E-03
      5.734  0.1665E-02  0.7521E-02  0.8683E-03
      7.944  0.5473E-03  0.1124E-01  0.3141E-02
     10.153  0.0000E+00  0.0000E+00  0.0000E+00
     12.363  0.0000E+00  0.0000E+00  0.0000E+00
