    2    2  100    1
  0.2995008E+02  0.4391852E-09  0.4391852E-09  0.4391852E-09  0.5000000E-15
  1.000000000000000E-004
  CAR 
 InAs                                    
      8     29      8
 
  0.0000000E+00  0.0000000E+00  0.0000000E+00  0.1953125E-02
    1       -8.729337   1.000000
    2        2.069438   1.000000
    3        2.627978   0.666678
    4        2.627978   0.666668
    5        2.627978   0.666654
    6        6.523880   0.000000
    7        6.523880   0.000000
    8        6.523880   0.000000
 
  0.1250000E+00 -0.7170914E-17 -0.8372444E-17  0.1562500E-01
    1       -8.607047   1.000000
    2        0.689362   1.000000
    3        2.460844   1.000000
    4        2.460844   1.000000
    5        3.515205   0.000000
    6        6.615957   0.000000
    7        6.775868   0.000000
    8        6.775868   0.000000
 
  0.2500000E+00 -0.1434183E-16 -0.1674489E-16  0.1562500E-01
    1       -8.271712   1.000000
    2       -0.935477   1.000000
    3        2.126893   1.000000
    4        2.126893   1.000000
    5        3.705668   0.000000
    6        7.182191   0.000000
    7        7.182191   0.000000
    8        7.560598   0.000000
 
  0.3750000E+00 -0.1384174E-16  0.8845029E-17  0.1562500E-01
    1       -7.851154   1.000000
    2       -2.211316   1.000000
    3        1.855232   1.000000
    4        1.855232   1.000000
    5        3.532639   0.000000
    6        7.294802   0.000000
    7        7.294802   0.000000
    8        8.910923   0.000000
 
  0.5000000E+00 -0.2868366E-16 -0.3348977E-16  0.7812500E-02
    1       -7.635943   1.000000
    2       -2.723676   1.000000
    3        1.755194   1.000000
    4        1.755194   1.000000
    5        3.447334   0.000000
    6        7.274245   0.000000
    7        7.274245   0.000000
    8        9.356139   0.000000
 
  0.1250000E+00  0.1250000E+00 -0.6662281E-17  0.1171875E-01
    1       -8.565884   1.000000
    2        0.585620   1.000000
    3        2.167296   1.000000
    4        2.167296   1.000000
    5        4.088966   0.000000
    6        5.884290   0.000000
    7        7.204606   0.000000
    8        7.204606   0.000000
 
  0.2500000E+00  0.1250000E+00 -0.2941687E-16  0.4687500E-01
    1       -8.299281   1.000000
    2       -0.611404   1.000000
    3        1.762812   1.000000
    4        1.791860   1.000000
    5        4.574142   0.000000
    6        5.932769   0.000000
    7        7.747059   0.000000
    8        7.774136   0.000000
 
  0.3750000E+00  0.1250000E+00 -0.2007603E-16  0.4687500E-01
    1       -7.895475   1.000000
    2       -1.878078   1.000000
    3        1.284596   1.000000
    4        1.551417   1.000000
    5        4.488912   0.000000
    6        6.643478   0.000000
    7        7.937129   0.000000
    8        8.175205   0.000000
 
  0.5000000E+00  0.1250000E+00 -0.9828117E-17  0.4687500E-01
    1       -7.584985   1.000000
    2       -2.624041   1.000000
    3        0.940733   1.000000
    4        1.530942   1.000000
    5        4.363366   0.000000
    6        6.898632   0.000000
    7        7.766961   0.000000
    8        9.219835   0.000000
 
 -0.3750000E+00  0.1250000E+00  0.1774506E-16  0.4687500E-01
    1       -7.659534   1.000000
    2       -2.456743   1.000000
    3        0.845889   1.000000
    4        1.731389   1.000000
    5        4.369509   0.000000
    6        7.080607   0.000000
    7        7.568817   0.000000
    8        9.047767   0.000000
 
 -0.2500000E+00  0.1250000E+00  0.9372621E-17  0.4687500E-01
    1       -8.038422   1.000000
    2       -1.488609   1.000000
    3        1.062815   1.000000
    4        2.082565   1.000000
    5        4.448940   0.000000
    6        7.129700   0.000000
    7        7.306596   0.000000
    8        7.888578   0.000000
 
 -0.1250000E+00  0.1250000E+00  0.1341375E-16  0.2343750E-01
    1       -8.412348   1.000000
    2       -0.235452   1.000000
    3        1.664317   1.000000
    4        2.413421   1.000000
    5        4.196445   0.000000
    6        6.525215   0.000000
    7        6.893328   0.000000
    8        7.564567   0.000000
 
  0.2500000E+00  0.2500000E+00 -0.1332456E-16  0.1171875E-01
    1       -8.112282   1.000000
    2       -1.007660   1.000000
    3        1.371685   1.000000
    4        1.371685   1.000000
    5        4.943466   0.000000
    6        5.213967   0.000000
    7        8.655285   0.000000
    8        8.655286   0.000000
 
  0.3750000E+00  0.2500000E+00 -0.3037673E-16  0.4687500E-01
    1       -7.771279   1.000000
    2       -1.849571   1.000000
    3        0.819991   1.000000
    4        1.102528   1.000000
    5        4.912109   0.000000
    6        5.571501   0.000000
    7        8.446865   0.000000
    8        9.145484   0.000000
 
  0.5000000E+00  0.2500000E+00 -0.5883375E-16  0.4687500E-01
    1       -7.447500   1.000000
    2       -2.509943   1.000000
    3        0.183698   1.000000
    4        1.079327   1.000000
    5        4.879827   0.000000
    6        6.668947   0.000000
    7        8.393237   0.000000
    8        8.993337   0.000000
 
 -0.3750000E+00  0.2500000E+00  0.2278637E-16  0.4687500E-01
    1       -7.403688   1.000000
    2       -2.582659   1.000000
    3       -0.132417   1.000000
    4        1.307001   1.000000
    5        4.977298   0.000000
    6        7.281603   0.000000
    7        8.579196   0.000000
    8        8.938549   0.000000
 
 -0.2500000E+00  0.2500000E+00  0.2682749E-16  0.2343750E-01
    1       -7.682483   1.000000
    2       -2.097066   1.000000
    3        0.113249   1.000000
    4        1.708154   1.000000
    5        5.049260   0.000000
    6        7.527934   0.000000
    7        7.760527   0.000000
    8        7.969805   0.000000
 
  0.3750000E+00  0.3750000E+00 -0.1998684E-16  0.1171875E-01
    1       -7.523494   1.000000
    2       -2.299090   1.000000
    3        0.781610   1.000000
    4        0.781610   1.000000
    5        4.443768   0.000000
    6        4.983138   0.000000
    7       10.222477   0.000000
    8       10.299219   0.000000
 
  0.5000000E+00  0.3750000E+00 -0.3370787E-16  0.4687500E-01
    1       -7.283860   1.000000
    2       -2.694521   1.000000
    3        0.275768   1.000000
    4        0.708628   1.000000
    5        4.582970   0.000000
    6        5.327152   0.000000
    7        9.895780   0.000000
    8       10.485980   0.000000
 
 -0.3750000E+00  0.3750000E+00 -0.2768348E-16  0.2343750E-01
    1       -7.231255   1.000000
    2       -2.729334   1.000000
    3       -0.275014   1.000000
    4        0.904473   1.000000
    5        4.770597   0.000000
    6        6.733496   0.000000
    7        9.615491   0.000000
    8        9.753499   0.000000
 
  0.5000000E+00  0.5000000E+00 -0.2664912E-16  0.5859375E-02
    1       -7.205937   1.000000
    2       -2.855919   1.000000
    3        0.571320   1.000000
    4        0.571320   1.000000
    5        4.314310   0.000000
    6        4.688868   0.000000
    7       11.315912   0.000000
    8       11.358599   0.000000
 
  0.3750000E+00  0.2500000E+00  0.1250000E+00  0.4687500E-01
    1       -7.992439   1.000000
    2       -1.418241   1.000000
    3        0.860425   1.000000
    4        1.657795   1.000000
    5        5.166124   0.000000
    6        5.905561   0.000000
    7        7.739803   0.000000
    8        8.427688   0.000000
 
  0.5000000E+00  0.2500000E+00  0.1250000E+00  0.9375000E-01
    1       -7.616218   1.000000
    2       -2.256387   1.000000
    3        0.325343   1.000000
    4        1.331033   1.000000
    5        5.257610   0.000000
    6        6.602787   0.000000
    7        7.707366   0.000000
    8        8.930364   0.000000
 
 -0.3750000E+00  0.2500000E+00  0.1250000E+00  0.4687500E-01
    1       -7.428705   1.000000
    2       -2.632058   1.000000
    3        0.169403   1.000000
    4        1.177683   1.000000
    5        5.223110   0.000000
    6        6.711460   0.000000
    7        8.219565   0.000000
    8        9.385917   0.000000
 
  0.5000000E+00  0.3750000E+00  0.1250000E+00  0.4687500E-01
    1       -7.465918   1.000000
    2       -2.382694   1.000000
    3        0.339519   1.000000
    4        0.767977   1.000000
    5        5.344496   0.000000
    6        5.558798   0.000000
    7        8.311054   0.000000
    8       10.253708   0.000000
 
 -0.3750000E+00  0.3750000E+00  0.1250000E+00  0.9375000E-01
    1       -7.264354   1.000000
    2       -2.671014   1.000000
    3       -0.127726   1.000000
    4        0.634791   1.000000
    5        5.512592   0.000000
    6        6.722923   0.000000
    7        8.063372   0.000000
    8        9.683906   0.000000
 
 -0.2500000E+00  0.3750000E+00  0.1250000E+00  0.4687500E-01
    1       -7.338045   1.000000
    2       -2.568678   1.000000
    3       -0.233133   1.000000
    4        0.898353   1.000000
    5        5.670440   0.000000
    6        7.223238   0.000000
    7        7.540563   0.000000
    8        9.778532   0.000000
 
 -0.3750000E+00  0.5000000E+00  0.1250000E+00  0.2343750E-01
    1       -7.194764   1.000000
    2       -2.793423   1.000000
    3        0.264799   1.000000
    4        0.316304   1.000000
    5        5.167691   0.000000
    6        5.445680   0.000000
    7        9.638214   0.000000
    8        9.985981   0.000000
 
 -0.2500000E+00  0.5000000E+00  0.2500000E+00  0.1171875E-01
    1       -7.183486   1.000000
    2       -2.724285   1.000000
    3       -0.006313   1.000000
    4        0.105545   1.000000
    5        6.523603   0.000000
    6        6.899814   0.000000
    7        7.431887   0.000000
    8        8.672433   0.000000
