       N       E                     dE             d eps       ncg     rms          rms(c)
DAV:   1     0.160467622245E+02    0.16047E+02   -0.27358E+03   480   0.645E+02
DAV:   2    -0.731069722789E+01   -0.23357E+02   -0.22920E+02   736   0.849E+01
DAV:   3    -0.795928264813E+01   -0.64859E+00   -0.64856E+00   536   0.185E+01
DAV:   4    -0.796175088036E+01   -0.24682E-02   -0.24682E-02   728   0.136E+00
DAV:   5    -0.796175244328E+01   -0.15629E-05   -0.15629E-05   528   0.285E-02
DAV:   6    -0.796175244919E+01   -0.59026E-08   -0.60226E-08   704   0.147E-03
DAV:   7    -0.796175244918E+01    0.23306E-11   -0.45982E-11   544   0.422E-05
DAV:   8    -0.796175244913E+01    0.58094E-10   -0.13366E-12   448   0.344E-06    0.431E+00
DAV:   9    -0.779065813822E+01    0.17109E+00   -0.24528E-01   536   0.195E+00    0.329E+00
DAV:  10    -0.770244944632E+01    0.88209E-01   -0.54291E-01   560   0.296E+00    0.143E+00
DAV:  11    -0.769484732406E+01    0.76021E-02   -0.41189E-02   528   0.120E+00    0.205E-01
DAV:  12    -0.769481430837E+01    0.33016E-04   -0.15720E-03   576   0.279E-01    0.168E-01
DAV:  13    -0.769491420037E+01   -0.99892E-04   -0.31974E-04   704   0.970E-02    0.697E-02
DAV:  14    -0.769491222072E+01    0.19796E-05   -0.22594E-04   520   0.675E-02    0.165E-02
DAV:  15    -0.769491278909E+01   -0.56837E-06   -0.83792E-06   528   0.205E-02    0.103E-02
DAV:  16    -0.769491260011E+01    0.18898E-06   -0.28063E-07   688   0.374E-03    0.514E-03
DAV:  17    -0.769491197343E+01    0.62668E-06   -0.23274E-06   600   0.680E-03    0.190E-03
DAV:  18    -0.769491199091E+01   -0.17482E-07   -0.70662E-08   280   0.205E-03
   1 F= -.76949120E+01 E0= -.76948969E+01  d E =-.769491E+01
