 vasp.5.4.4.18Apr17-6-g9f103f2a35 (build Apr 10 2018 17:34:00) complex          
  
 executed on             LinuxIFC date 2018.10.04  08:22:02
 running on   10 total cores
 distrk:  each k-point on   10 cores,    1 groups
 distr:  one band on NCORES_PER_BAND=   5 cores,    2 groups


--------------------------------------------------------------------------------------------------------


 INCAR:
 POTCAR:    PAW_PBE In 08Apr2002                  
 POTCAR:    PAW_PBE As 22Sep2009                  
 POTCAR:    PAW_PBE In 08Apr2002                  
  local pseudopotential read in
  partial core-charges read in
  partial kinetic energy density read in
  atomic valenz-charges read in
  non local Contribution for L=           0  read in
    real space projection operators read in
  non local Contribution for L=           0  read in
    real space projection operators read in
  non local Contribution for L=           1  read in
    real space projection operators read in
  non local Contribution for L=           1  read in
    real space projection operators read in
  non local Contribution for L=           2  read in
    real space projection operators read in
    PAW grid and wavefunctions read in
 
   number of l-projection  operators is LMAX  =           5
   number of lm-projection operators is LMMAX =          13
 
 POTCAR:    PAW_PBE As 22Sep2009                  
  local pseudopotential read in
  partial core-charges read in
  partial kinetic energy density read in
  atomic valenz-charges read in
  non local Contribution for L=           0  read in
    real space projection operators read in
  non local Contribution for L=           0  read in
    real space projection operators read in
  non local Contribution for L=           1  read in
    real space projection operators read in
  non local Contribution for L=           1  read in
    real space projection operators read in
  non local Contribution for L=           2  read in
    real space projection operators read in
    PAW grid and wavefunctions read in
 
   number of l-projection  operators is LMAX  =           5
   number of lm-projection operators is LMMAX =          13
 
  PAW_PBE In 08Apr2002                  :
 energy of atom  1       EATOM=  -53.7908
 kinetic energy error for atom=    0.0000 (will be added to EATOM!!)
  PAW_PBE As 22Sep2009                  :
 energy of atom  2       EATOM= -170.1867
 kinetic energy error for atom=    0.0011 (will be added to EATOM!!)
 
 
 POSCAR: InAs                                    
  positions in direct lattice
  velocities in cartesian coordinates
 exchange correlation table for  LEXCH =        8
   RHO(1)=    0.500       N(1)  =     2000
   RHO(2)=  100.500       N(2)  =     4000
 


--------------------------------------------------------------------------------------------------------


 ion  position               nearest neighbor table
   1  0.000  0.000  0.000-   2 2.69   2 2.69   2 2.69   2 2.69
   2  0.250  0.250  0.250-   1 2.69   1 2.69   1 2.69   1 2.69
 
  LATTYP: Found a face centered cubic cell.
 ALAT       =     6.2110160456
  
  Lattice vectors:
  
 A1 = (   0.0000000000,   3.1055080228,   3.1055080228)
 A2 = (   3.1055080228,   0.0000000000,   3.1055080228)
 A3 = (   3.1055080228,   3.1055080228,   0.0000000000)


Analysis of symmetry for initial positions (statically):
=====================================================================
 Subroutine PRICEL returns:
 Original cell was already a primitive cell.
 

 Routine SETGRP: Setting up the symmetry group for a 
 face centered cubic supercell.


 Subroutine GETGRP returns: Found 24 space group operations
 (whereof 24 operations were pure point group operations)
 out of a pool of 48 trial point group operations.


The static configuration has the point symmetry T_d .


Analysis of symmetry for dynamics (positions and initial velocities):
=====================================================================
 Subroutine PRICEL returns:
 Original cell was already a primitive cell.
 

 Routine SETGRP: Setting up the symmetry group for a 
 face centered cubic supercell.


 Subroutine GETGRP returns: Found 24 space group operations
 (whereof 24 operations were pure point group operations)
 out of a pool of 48 trial point group operations.


The dynamic configuration has the point symmetry T_d .


 Subroutine INISYM returns: Found 24 space group operations
 (whereof 24 operations are pure point group operations),
 and found     1 'primitive' translations

 
 
 KPOINTS: InAs                                    

Automatic generation of k-mesh.
 generate k-points for:    8    8    8
Space group operators:
 irot       det(A)        alpha          n_x          n_y          n_z        tau_x        tau_y        tau_z
    1     1.000000     0.000000     1.000000     0.000000     0.000000     0.000000     0.000000     0.000000
    2     1.000000   120.000000    -0.577350    -0.577350    -0.577350     0.000000     0.000000     0.000000
    3     1.000000   120.000000     0.577350     0.577350     0.577350     0.000000     0.000000     0.000000
    4    -1.000000    90.000000     0.000000     0.000000    -1.000000     0.000000     0.000000     0.000000
    5    -1.000000   180.000000    -0.000000    -0.707107    -0.707107     0.000000     0.000000     0.000000
    6    -1.000000    90.000000    -0.000000     1.000000    -0.000000     0.000000     0.000000     0.000000
    7     1.000000   180.000000    -0.000000     0.000000    -1.000000     0.000000     0.000000     0.000000
    8     1.000000   120.000000    -0.577350     0.577350     0.577350     0.000000     0.000000     0.000000
    9     1.000000   120.000000    -0.577350     0.577350    -0.577350     0.000000     0.000000     0.000000
   10    -1.000000    90.000000    -0.000000     0.000000     1.000000     0.000000     0.000000     0.000000
   11    -1.000000    90.000000    -1.000000     0.000000     0.000000     0.000000     0.000000     0.000000
   12    -1.000000   180.000000     0.707107     0.000000     0.707107     0.000000     0.000000     0.000000
   13     1.000000   120.000000     0.577350    -0.577350     0.577350     0.000000     0.000000     0.000000
   14     1.000000   120.000000    -0.577350    -0.577350     0.577350     0.000000     0.000000     0.000000
   15     1.000000   180.000000     1.000000     0.000000     0.000000     0.000000     0.000000     0.000000
   16    -1.000000    90.000000     0.000000    -1.000000    -0.000000     0.000000     0.000000     0.000000
   17    -1.000000   180.000000     0.707107     0.707107    -0.000000     0.000000     0.000000     0.000000
   18    -1.000000    90.000000     1.000000     0.000000     0.000000     0.000000     0.000000     0.000000
   19     1.000000   120.000000     0.577350    -0.577350    -0.577350     0.000000     0.000000     0.000000
   20     1.000000   180.000000    -0.000000    -1.000000     0.000000     0.000000     0.000000     0.000000
   21     1.000000   120.000000     0.577350     0.577350    -0.577350     0.000000     0.000000     0.000000
   22    -1.000000   180.000000     0.000000     0.707107    -0.707107     0.000000     0.000000     0.000000
   23    -1.000000   180.000000    -0.707107     0.707107    -0.000000     0.000000     0.000000     0.000000
   24    -1.000000   180.000000     0.707107     0.000000    -0.707107     0.000000     0.000000     0.000000
 
 Subroutine IBZKPT returns following result:
 ===========================================
 
 Found     29 irreducible k-points:
 
 Following reciprocal coordinates:
            Coordinates               Weight
  0.000000  0.000000  0.000000      1.000000
  0.125000 -0.000000 -0.000000      8.000000
  0.250000 -0.000000 -0.000000      8.000000
  0.375000 -0.000000  0.000000      8.000000
  0.500000 -0.000000 -0.000000      4.000000
  0.125000  0.125000 -0.000000      6.000000
  0.250000  0.125000 -0.000000     24.000000
  0.375000  0.125000 -0.000000     24.000000
  0.500000  0.125000 -0.000000     24.000000
 -0.375000  0.125000  0.000000     24.000000
 -0.250000  0.125000  0.000000     24.000000
 -0.125000  0.125000  0.000000     12.000000
  0.250000  0.250000 -0.000000      6.000000
  0.375000  0.250000 -0.000000     24.000000
  0.500000  0.250000 -0.000000     24.000000
 -0.375000  0.250000  0.000000     24.000000
 -0.250000  0.250000  0.000000     12.000000
  0.375000  0.375000 -0.000000      6.000000
  0.500000  0.375000 -0.000000     24.000000
 -0.375000  0.375000 -0.000000     12.000000
  0.500000  0.500000 -0.000000      3.000000
  0.375000  0.250000  0.125000     24.000000
  0.500000  0.250000  0.125000     48.000000
 -0.375000  0.250000  0.125000     24.000000
  0.500000  0.375000  0.125000     24.000000
 -0.375000  0.375000  0.125000     48.000000
 -0.250000  0.375000  0.125000     24.000000
 -0.375000  0.500000  0.125000     12.000000
 -0.250000  0.500000  0.250000      6.000000
 
 Following cartesian coordinates:
            Coordinates               Weight
  0.000000  0.000000  0.000000      1.000000
 -0.020126  0.020126  0.020126      8.000000
 -0.040251  0.040251  0.040251      8.000000
 -0.060377  0.060377  0.060377      8.000000
 -0.080502  0.080502  0.080502      4.000000
  0.000000  0.000000  0.040251      6.000000
 -0.020126  0.020126  0.060377     24.000000
 -0.040251  0.040251  0.080502     24.000000
 -0.060377  0.060377  0.100628     24.000000
  0.080502 -0.080502 -0.040251     24.000000
  0.060377 -0.060377 -0.020126     24.000000
  0.040251 -0.040251  0.000000     12.000000
  0.000000  0.000000  0.080502      6.000000
 -0.020126  0.020126  0.100628     24.000000
 -0.040251  0.040251  0.120753     24.000000
  0.100628 -0.100628 -0.020126     24.000000
  0.080502 -0.080502  0.000000     12.000000
 -0.000000  0.000000  0.120753      6.000000
 -0.020126  0.020126  0.140879     24.000000
  0.120753 -0.120753  0.000000     12.000000
  0.000000  0.000000  0.161004      3.000000
  0.000000  0.040251  0.080502     24.000000
 -0.020126  0.060377  0.100628     48.000000
  0.120753 -0.080502 -0.040251     24.000000
 -0.000000  0.040251  0.120753     24.000000
  0.140879 -0.100628 -0.020126     48.000000
  0.120753 -0.080502  0.000000     24.000000
  0.161004 -0.120753  0.000000     12.000000
  0.161004 -0.080502  0.000000      6.000000
 


--------------------------------------------------------------------------------------------------------




 Dimension of arrays:
   k-points           NKPTS =     29   k-points in BZ     NKDIM =     29   number of bands    NBANDS=      8
   number of dos      NEDOS =     11   number of ions     NIONS =      2
   non local maximal  LDIM  =      5   non local SUM 2l+1 LMDIM =     13
   total plane-waves  NPLWV =  27000
   max r-space proj   IRMAX =      1   max aug-charges    IRDMAX= 406948
   dimension x,y,z NGX =    30 NGY =   30 NGZ =   30
   dimension x,y,z NGXF=    60 NGYF=   60 NGZF=   60
   support grid    NGXF=   120 NGYF=  120 NGZF=  120
   ions per type =               1   1
   NGX,Y,Z   is equivalent  to a cutoff of  11.36, 11.36, 11.36 a.u.
   NGXF,Y,Z  is equivalent  to a cutoff of  22.71, 22.71, 22.71 a.u.

 SYSTEM =  InAs                                    
 POSCAR =  InAs                                    

 Startparameter for this run:
   NWRITE =      1    write-flag & timer
   PREC   = accura    normal or accurate (medium, high low for compatibility)
   ISTART =      0    job   : 0-new  1-cont  2-samecut
   ICHARG =      2    charge: 1-file 2-atom 10-const
   ISPIN  =      1    spin polarized calculation?
   LNONCOLLINEAR =      F non collinear calculations
   LSORBIT =      F    spin-orbit coupling
   INIWAV =      1    electr: 0-lowe 1-rand  2-diag
   LASPH  =      T    aspherical Exc in radial PAW
   METAGGA=      F    non-selfconsistent MetaGGA calc.

 Electronic Relaxation 1
   ENCUT  =  416.0 eV  30.58 Ry    5.53 a.u.   7.30  7.30  7.30*2*pi/ulx,y,z
   ENINI  =  416.0     initial cutoff
   ENAUG  =  462.8 eV  augmentation charge cutoff
   NELM   =    100;   NELMIN=  6; NELMDL= -8     # of ELM steps 
   EDIFF  = 0.1E-06   stopping-criterion for ELM
   LREAL  =      F    real-space projection
   NLSPLINE    = F    spline interpolate recip. space projectors
   LCOMPAT=      F    compatible to vasp.4.4
   GGA_COMPAT  = T    GGA compatible to vasp.4.4-vasp.4.6
   LMAXPAW     = -100 max onsite density
   LMAXMIX     =    6 max onsite mixed and CHGCAR
   VOSKOWN=      0    Vosko Wilk Nusair interpolation
   ROPT   =    0.00000   0.00000
 Ionic relaxation
   EDIFFG = -.1E-02   stopping-criterion for IOM
   NSW    =    100    number of steps for IOM
   NBLOCK =      1;   KBLOCK =    100    inner block; outer block 
   IBRION =      2    ionic relax: 0-MD 1-quasi-New 2-CG
   NFREE  =      1    steps in history (QN), initial steepest desc. (CG)
   ISIF   =      3    stress and relaxation
   IWAVPR =     11    prediction:  0-non 1-charg 2-wave 3-comb
   ISYM   =      2    0-nonsym 1-usesym 2-fastsym
   LCORR  =      T    Harris-Foulkes like correction to forces

   POTIM  = 0.5000    time-step for ionic-motion
   TEIN   =    0.0    initial temperature
   TEBEG  =    0.0;   TEEND  =   0.0 temperature during run
   SMASS  =  -3.00    Nose mass-parameter (am)
   estimated Nose-frequenzy (Omega)   =  0.10E-29 period in steps =****** mass=  -0.441E-27a.u.
   SCALEE = 1.0000    scale energy and forces
   NPACO  =    256;   APACO  = 16.0  distance and # of slots for P.C.
   PSTRESS=    0.0 pullay stress

  Mass of Ions in am
   POMASS = 114.82 74.92
  Ionic Valenz
   ZVAL   =   3.00  5.00
  Atomic Wigner-Seitz radii
   RWIGS  =  -1.00 -1.00
  virtual crystal weights 
   VCA    =   1.00  1.00
   NELECT =       8.0000    total number of electrons
   NUPDOWN=      -1.0000    fix difference up-down

 DOS related values:
   EMIN   =  10.00;   EMAX   =-10.00  energy-range for DOS
   EFERMI =   0.00
   ISMEAR =     0;   SIGMA  =   0.01  broadening in eV -4-tet -1-fermi 0-gaus

 Electronic relaxation 2 (details)
   IALGO  =     38    algorithm
   LDIAG  =      T    sub-space diagonalisation (order eigenvalues)
   LSUBROT=      F    optimize rotation matrix (better conditioning)
   TURBO    =      0    0=normal 1=particle mesh
   IRESTART =      0    0=no restart 2=restart with 2 vectors
   NREBOOT  =      0    no. of reboots
   NMIN     =      0    reboot dimension
   EREF     =   0.00    reference energy to select bands
   IMIX   =      4    mixing-type and parameters
     AMIX     =   0.20;   BMIX     =  0.00
     AMIX_MAG =   0.80;   BMIX_MAG =  0.00
     AMIN     =   0.10
     WC   =   100.;   INIMIX=   1;  MIXPRE=   1;  MAXMIX= -45

 Intra band minimization:
   WEIMIN = 0.0010     energy-eigenvalue tresh-hold
   EBREAK =  0.31E-08  absolut break condition
   DEPER  =   0.30     relativ break condition  

   TIME   =   0.40     timestep for ELM

  volume/ion in A,a.u.               =      29.95       202.11
  Fermi-wavevector in a.u.,A,eV,Ry     =   0.836814  1.581349  9.527580  0.700257
  Thomas-Fermi vector in A             =   1.950600
 
 Write flags
   LWAVE        =      F    write WAVECAR
   LDOWNSAMPLE  =      F    k-point downsampling of WAVECAR
   LCHARG       =      F    write CHGCAR
   LVTOT        =      F    write LOCPOT, total local potential
   LVHAR        =      F    write LOCPOT, Hartree potential only
   LELF         =      F    write electronic localiz. function (ELF)
   LORBIT       =     10    0 simple, 1 ext, 2 COOP (PROOUT), +10 PAW based schemes


 Dipole corrections
   LMONO  =      F    monopole corrections only (constant potential shift)
   LDIPOL =      F    correct potential (dipole corrections)
   IDIPOL =      0    1-x, 2-y, 3-z, 4-all directions 
   EPSILON=  1.0000000 bulk dielectric constant

 Exchange correlation treatment:
   GGA     =    --    GGA type
   LEXCH   =     8    internal setting for exchange type
   VOSKOWN=      0    Vosko Wilk Nusair interpolation
   LHFCALC =     F    Hartree Fock is set to
   LHFONE  =     F    Hartree Fock one center treatment
   AEXX    =    0.0000 exact exchange contribution

 Linear response parameters
   LEPSILON=     F    determine dielectric tensor
   LRPA    =     F    only Hartree local field effects (RPA)
   LNABLA  =     F    use nabla operator in PAW spheres
   LVEL    =     F    velocity operator in full k-point grid
   LINTERFAST=   F  fast interpolation
   KINTER  =     0    interpolate to denser k-point grid
   CSHIFT  =0.1000    complex shift for real part using Kramers Kronig
   OMEGAMAX=  -1.0    maximum frequency
   DEG_THRESHOLD= 0.2000000E-02 threshold for treating states as degnerate
   RTIME   =   -0.100 relaxation time in fs
  (WPLASMAI=    0.000 imaginary part of plasma frequency in eV, 0.658/RTIME)
   DFIELD  = 0.0000000 0.0000000 0.0000000 field for delta impulse in time
 
 Orbital magnetization related:
   ORBITALMAG=     F  switch on orbital magnetization
   LCHIMAG   =     F  perturbation theory with respect to B field
   DQ        =  0.001000  dq finite difference perturbation B field
   LLRAUG    =     F  two centre corrections for induced B field



--------------------------------------------------------------------------------------------------------


 conjugate gradient relaxation of ions
 charge density and potential will be updated during run
 non-spin polarized calculation
 Variant of blocked Davidson
 Davidson routine will perform the subspace rotation
 perform sub-space diagonalisation
    after iterative eigenvector-optimisation
 modified Broyden-mixing scheme, WC =      100.0
 initial mixing is a Kerker type mixing with AMIX =  0.2000 and BMIX =      0.0010
 Hartree-type preconditioning will be used
 using additional bands            4
 reciprocal scheme for non local part
 use partial core corrections
 calculate Harris-corrections to forces 
   (improved forces if not selfconsistent)
 use gradient corrections 
 use of overlap-Matrix (Vanderbilt PP)
 Gauss-broadening in eV      SIGMA  =   0.01


--------------------------------------------------------------------------------------------------------


  energy-cutoff  :      416.00
  volume of cell :       59.90
      direct lattice vectors                 reciprocal lattice vectors
     0.000000000  3.105508023  3.105508023    -0.161004253  0.161004253  0.161004253
     3.105508023  0.000000000  3.105508023     0.161004253 -0.161004253  0.161004253
     3.105508023  3.105508023  0.000000000     0.161004253  0.161004253 -0.161004253

  length of vectors
     4.391851564  4.391851564  4.391851564     0.278867547  0.278867547  0.278867547


 
 k-points in units of 2pi/SCALE and weight: InAs                                    
   0.00000000  0.00000000  0.00000000       0.002
  -0.02012553  0.02012553  0.02012553       0.016
  -0.04025106  0.04025106  0.04025106       0.016
  -0.06037659  0.06037659  0.06037659       0.016
  -0.08050213  0.08050213  0.08050213       0.008
  -0.00000000 -0.00000000  0.04025106       0.012
  -0.02012553  0.02012553  0.06037659       0.047
  -0.04025106  0.04025106  0.08050213       0.047
  -0.06037659  0.06037659  0.10062766       0.047
   0.08050213 -0.08050213 -0.04025106       0.047
   0.06037659 -0.06037659 -0.02012553       0.047
   0.04025106 -0.04025106  0.00000000       0.023
  -0.00000000 -0.00000000  0.08050213       0.012
  -0.02012553  0.02012553  0.10062766       0.047
  -0.04025106  0.04025106  0.12075319       0.047
   0.10062766 -0.10062766 -0.02012553       0.047
   0.08050213 -0.08050213  0.00000000       0.023
  -0.00000000  0.00000000  0.12075319       0.012
  -0.02012553  0.02012553  0.14087872       0.047
   0.12075319 -0.12075319  0.00000000       0.023
  -0.00000000 -0.00000000  0.16100425       0.006
   0.00000000  0.04025106  0.08050213       0.047
  -0.02012553  0.06037659  0.10062766       0.094
   0.12075319 -0.08050213 -0.04025106       0.047
  -0.00000000  0.04025106  0.12075319       0.047
   0.14087872 -0.10062766 -0.02012553       0.094
   0.12075319 -0.08050213  0.00000000       0.047
   0.16100425 -0.12075319 -0.00000000       0.023
   0.16100425 -0.08050213 -0.00000000       0.012
 
 k-points in reciprocal lattice and weights: InAs                                    
   0.00000000  0.00000000  0.00000000       0.002
   0.12500000 -0.00000000 -0.00000000       0.016
   0.25000000 -0.00000000 -0.00000000       0.016
   0.37500000 -0.00000000  0.00000000       0.016
   0.50000000 -0.00000000 -0.00000000       0.008
   0.12500000  0.12500000 -0.00000000       0.012
   0.25000000  0.12500000 -0.00000000       0.047
   0.37500000  0.12500000 -0.00000000       0.047
   0.50000000  0.12500000 -0.00000000       0.047
  -0.37500000  0.12500000  0.00000000       0.047
  -0.25000000  0.12500000  0.00000000       0.047
  -0.12500000  0.12500000  0.00000000       0.023
   0.25000000  0.25000000 -0.00000000       0.012
   0.37500000  0.25000000 -0.00000000       0.047
   0.50000000  0.25000000 -0.00000000       0.047
  -0.37500000  0.25000000  0.00000000       0.047
  -0.25000000  0.25000000  0.00000000       0.023
   0.37500000  0.37500000 -0.00000000       0.012
   0.50000000  0.37500000 -0.00000000       0.047
  -0.37500000  0.37500000 -0.00000000       0.023
   0.50000000  0.50000000 -0.00000000       0.006
   0.37500000  0.25000000  0.12500000       0.047
   0.50000000  0.25000000  0.12500000       0.094
  -0.37500000  0.25000000  0.12500000       0.047
   0.50000000  0.37500000  0.12500000       0.047
  -0.37500000  0.37500000  0.12500000       0.094
  -0.25000000  0.37500000  0.12500000       0.047
  -0.37500000  0.50000000  0.12500000       0.023
  -0.25000000  0.50000000  0.25000000       0.012
 
 position of ions in fractional coordinates (direct lattice) 
   0.00000000  0.00000000  0.00000000
   0.25000000  0.25000000  0.25000000
 
 position of ions in cartesian coordinates  (Angst):
   0.00000000  0.00000000  0.00000000
   1.55275401  1.55275401  1.55275401
 


--------------------------------------------------------------------------------------------------------


 k-point  1 :   0.0000 0.0000 0.0000  plane waves:    1139
 k-point  2 :   0.1250-0.0000-0.0000  plane waves:    1173
 k-point  3 :   0.2500-0.0000-0.0000  plane waves:    1164
 k-point  4 :   0.3750-0.0000 0.0000  plane waves:    1155
 k-point  5 :   0.5000-0.0000-0.0000  plane waves:    1158
 k-point  6 :   0.1250 0.1250-0.0000  plane waves:    1163
 k-point  7 :   0.2500 0.1250-0.0000  plane waves:    1160
 k-point  8 :   0.3750 0.1250-0.0000  plane waves:    1151
 k-point  9 :   0.5000 0.1250-0.0000  plane waves:    1160
 k-point 10 :  -0.3750 0.1250 0.0000  plane waves:    1151
 k-point 11 :  -0.2500 0.1250 0.0000  plane waves:    1151
 k-point 12 :  -0.1250 0.1250 0.0000  plane waves:    1159
 k-point 13 :   0.2500 0.2500-0.0000  plane waves:    1174
 k-point 14 :   0.3750 0.2500-0.0000  plane waves:    1157
 k-point 15 :   0.5000 0.2500-0.0000  plane waves:    1156
 k-point 16 :  -0.3750 0.2500 0.0000  plane waves:    1150
 k-point 17 :  -0.2500 0.2500 0.0000  plane waves:    1159
 k-point 18 :   0.3750 0.3750-0.0000  plane waves:    1150
 k-point 19 :   0.5000 0.3750-0.0000  plane waves:    1150
 k-point 20 :  -0.3750 0.3750-0.0000  plane waves:    1144
 k-point 21 :   0.5000 0.5000-0.0000  plane waves:    1162
 k-point 22 :   0.3750 0.2500 0.1250  plane waves:    1153
 k-point 23 :   0.5000 0.2500 0.1250  plane waves:    1150
 k-point 24 :  -0.3750 0.2500 0.1250  plane waves:    1154
 k-point 25 :   0.5000 0.3750 0.1250  plane waves:    1171
 k-point 26 :  -0.3750 0.3750 0.1250  plane waves:    1157
 k-point 27 :  -0.2500 0.3750 0.1250  plane waves:    1153
 k-point 28 :  -0.3750 0.5000 0.1250  plane waves:    1156
 k-point 29 :  -0.2500 0.5000 0.2500  plane waves:    1144

 maximum and minimum number of plane-waves per node :       248      219

 maximum number of plane-waves:      1174
 maximum index in each direction: 
   IXMAX=    7   IYMAX=    7   IZMAX=    7
   IXMIN=   -7   IYMIN=   -7   IZMIN=   -7


 parallel 3D FFT for wavefunctions:
    minimum data exchange during FFTs selected (reduces bandwidth)
 parallel 3D FFT for charge:
    minimum data exchange during FFTs selected (reduces bandwidth)


 total amount of memory used by VASP MPI-rank0    36810. kBytes
=======================================================================

   base      :      30000. kBytes
   nonl-proj :       1503. kBytes
   fftplans  :       3356. kBytes
   grid      :       1457. kBytes
   one-center:          8. kBytes
   wavefun   :        486. kBytes
 
     INWAV:  cpu time    0.0000: real time    0.0000
 Broyden mixing: mesh for mixing (old mesh)
   NGX = 15   NGY = 15   NGZ = 15
  (NGX  = 60   NGY  = 60   NGZ  = 60)
  gives a total of   3375 points

 initial charge density was supplied:
 charge density of overlapping atoms calculated
 number of electron       8.0000000 magnetization 
 keeping initial charge density in first step


--------------------------------------------------------------------------------------------------------


 Maximum index for augmentation-charges        39195 (set IRDMAX)


--------------------------------------------------------------------------------------------------------


 First call to EWALD:  gamma=   0.453
 Maximum number of real-space cells 3x 3x 3
 Maximum number of reciprocal cells 3x 3x 3

    FEWALD:  cpu time    0.0007: real time    0.0007


--------------------------------------- Iteration      1(   1)  ---------------------------------------


    POTLOK:  cpu time    0.0081: real time    0.0081
    SETDIJ:  cpu time    0.1236: real time    0.1236
     EDDAV:  cpu time    0.0515: real time    0.0515
       DOS:  cpu time    0.0002: real time    0.0002
    --------------------------------------------
      LOOP:  cpu time    0.1834: real time    0.1833

 eigenvalue-minimisations  :   480
 total energy-change (2. order) : 0.1604676E+02  (-0.2735834E+03)
 number of electron       8.0000000 magnetization 
 augmentation part        8.0000000 magnetization 

 Free energy of the ion-electron system (eV)
  ---------------------------------------------------
  alpha Z        PSCENC =         6.19609973
  Ewald energy   TEWEN  =      -208.59280682
  -Hartree energ DENC   =       -22.87803490
  -exchange      EXHF   =         0.00000000
  -V(xc)+E(xc)   XCENC  =       -67.86271711
  PAW double counting   =       241.28716128     -160.47085024
  entropy T*S    EENTRO =        -0.00028258
  eigenvalues    EBANDS =         4.39179594
  atomic energy  EATOM  =       223.97639693
  Solvation  Ediel_sol  =         0.00000000
  ---------------------------------------------------
  free energy    TOTEN  =        16.04676222 eV

  energy without entropy =       16.04704481  energy(sigma->0) =       16.04690352


--------------------------------------------------------------------------------------------------------




--------------------------------------- Iteration      1(   2)  ---------------------------------------


     EDDAV:  cpu time    0.0744: real time    0.0744
       DOS:  cpu time    0.0001: real time    0.0001
    --------------------------------------------
      LOOP:  cpu time    0.0744: real time    0.0744

 eigenvalue-minimisations  :   736
 total energy-change (2. order) :-0.2335746E+02  (-0.2292019E+02)
 number of electron       8.0000000 magnetization 
 augmentation part        8.0000000 magnetization 

 Free energy of the ion-electron system (eV)
  ---------------------------------------------------
  alpha Z        PSCENC =         6.19609973
  Ewald energy   TEWEN  =      -208.59280682
  -Hartree energ DENC   =       -22.87803490
  -exchange      EXHF   =         0.00000000
  -V(xc)+E(xc)   XCENC  =       -67.86271711
  PAW double counting   =       241.28716128     -160.47085024
  entropy T*S    EENTRO =        -0.00000000
  eigenvalues    EBANDS =       -18.96594609
  atomic energy  EATOM  =       223.97639693
  Solvation  Ediel_sol  =         0.00000000
  ---------------------------------------------------
  free energy    TOTEN  =        -7.31069723 eV

  energy without entropy =       -7.31069723  energy(sigma->0) =       -7.31069723


--------------------------------------------------------------------------------------------------------




--------------------------------------- Iteration      1(   3)  ---------------------------------------


     EDDAV:  cpu time    0.0567: real time    0.0567
       DOS:  cpu time    0.0002: real time    0.0002
    --------------------------------------------
      LOOP:  cpu time    0.0569: real time    0.0569

 eigenvalue-minimisations  :   536
 total energy-change (2. order) :-0.6485854E+00  (-0.6485565E+00)
 number of electron       8.0000000 magnetization 
 augmentation part        8.0000000 magnetization 

 Free energy of the ion-electron system (eV)
  ---------------------------------------------------
  alpha Z        PSCENC =         6.19609973
  Ewald energy   TEWEN  =      -208.59280682
  -Hartree energ DENC   =       -22.87803490
  -exchange      EXHF   =         0.00000000
  -V(xc)+E(xc)   XCENC  =       -67.86271711
  PAW double counting   =       241.28716128     -160.47085024
  entropy T*S    EENTRO =        -0.00003011
  eigenvalues    EBANDS =       -19.61450140
  atomic energy  EATOM  =       223.97639693
  Solvation  Ediel_sol  =         0.00000000
  ---------------------------------------------------
  free energy    TOTEN  =        -7.95928265 eV

  energy without entropy =       -7.95925254  energy(sigma->0) =       -7.95926759


--------------------------------------------------------------------------------------------------------




--------------------------------------- Iteration      1(   4)  ---------------------------------------


     EDDAV:  cpu time    0.0741: real time    0.0741
       DOS:  cpu time    0.0002: real time    0.0002
    --------------------------------------------
      LOOP:  cpu time    0.0743: real time    0.0743

 eigenvalue-minimisations  :   728
 total energy-change (2. order) :-0.2468232E-02  (-0.2468215E-02)
 number of electron       8.0000000 magnetization 
 augmentation part        8.0000000 magnetization 

 Free energy of the ion-electron system (eV)
  ---------------------------------------------------
  alpha Z        PSCENC =         6.19609973
  Ewald energy   TEWEN  =      -208.59280682
  -Hartree energ DENC   =       -22.87803490
  -exchange      EXHF   =         0.00000000
  -V(xc)+E(xc)   XCENC  =       -67.86271711
  PAW double counting   =       241.28716128     -160.47085024
  entropy T*S    EENTRO =        -0.00003013
  eigenvalues    EBANDS =       -19.61696962
  atomic energy  EATOM  =       223.97639693
  Solvation  Ediel_sol  =         0.00000000
  ---------------------------------------------------
  free energy    TOTEN  =        -7.96175088 eV

  energy without entropy =       -7.96172075  energy(sigma->0) =       -7.96173582


--------------------------------------------------------------------------------------------------------




--------------------------------------- Iteration      1(   5)  ---------------------------------------


     EDDAV:  cpu time    0.0559: real time    0.0559
       DOS:  cpu time    0.0002: real time    0.0002
    --------------------------------------------
      LOOP:  cpu time    0.0561: real time    0.0561

 eigenvalue-minimisations  :   528
 total energy-change (2. order) :-0.1562929E-05  (-0.1562921E-05)
 number of electron       8.0000000 magnetization 
 augmentation part        8.0000000 magnetization 

 Free energy of the ion-electron system (eV)
  ---------------------------------------------------
  alpha Z        PSCENC =         6.19609973
  Ewald energy   TEWEN  =      -208.59280682
  -Hartree energ DENC   =       -22.87803490
  -exchange      EXHF   =         0.00000000
  -V(xc)+E(xc)   XCENC  =       -67.86271711
  PAW double counting   =       241.28716128     -160.47085024
  entropy T*S    EENTRO =        -0.00003013
  eigenvalues    EBANDS =       -19.61697118
  atomic energy  EATOM  =       223.97639693
  Solvation  Ediel_sol  =         0.00000000
  ---------------------------------------------------
  free energy    TOTEN  =        -7.96175244 eV

  energy without entropy =       -7.96172231  energy(sigma->0) =       -7.96173738


--------------------------------------------------------------------------------------------------------




--------------------------------------- Iteration      1(   6)  ---------------------------------------


     EDDAV:  cpu time    0.0715: real time    0.0715
       DOS:  cpu time    0.0002: real time    0.0002
    --------------------------------------------
      LOOP:  cpu time    0.0716: real time    0.0716

 eigenvalue-minimisations  :   704
 total energy-change (2. order) :-0.5902621E-08  (-0.6022601E-08)
 number of electron       8.0000000 magnetization 
 augmentation part        8.0000000 magnetization 

 Free energy of the ion-electron system (eV)
  ---------------------------------------------------
  alpha Z        PSCENC =         6.19609973
  Ewald energy   TEWEN  =      -208.59280682
  -Hartree energ DENC   =       -22.87803490
  -exchange      EXHF   =         0.00000000
  -V(xc)+E(xc)   XCENC  =       -67.86271711
  PAW double counting   =       241.28716128     -160.47085024
  entropy T*S    EENTRO =        -0.00003013
  eigenvalues    EBANDS =       -19.61697119
  atomic energy  EATOM  =       223.97639693
  Solvation  Ediel_sol  =         0.00000000
  ---------------------------------------------------
  free energy    TOTEN  =        -7.96175245 eV

  energy without entropy =       -7.96172232  energy(sigma->0) =       -7.96173738


--------------------------------------------------------------------------------------------------------




--------------------------------------- Iteration      1(   7)  ---------------------------------------


     EDDAV:  cpu time    0.0580: real time    0.0581
       DOS:  cpu time    0.0002: real time    0.0002
    --------------------------------------------
      LOOP:  cpu time    0.0582: real time    0.0582

 eigenvalue-minimisations  :   544
 total energy-change (2. order) : 0.2330580E-11  (-0.4598166E-11)
 number of electron       8.0000000 magnetization 
 augmentation part        8.0000000 magnetization 

 Free energy of the ion-electron system (eV)
  ---------------------------------------------------
  alpha Z        PSCENC =         6.19609973
  Ewald energy   TEWEN  =      -208.59280682
  -Hartree energ DENC   =       -22.87803490
  -exchange      EXHF   =         0.00000000
  -V(xc)+E(xc)   XCENC  =       -67.86271711
  PAW double counting   =       241.28716128     -160.47085024
  entropy T*S    EENTRO =        -0.00003013
  eigenvalues    EBANDS =       -19.61697119
  atomic energy  EATOM  =       223.97639693
  Solvation  Ediel_sol  =         0.00000000
  ---------------------------------------------------
  free energy    TOTEN  =        -7.96175245 eV

  energy without entropy =       -7.96172232  energy(sigma->0) =       -7.96173738


--------------------------------------------------------------------------------------------------------




--------------------------------------- Iteration      1(   8)  ---------------------------------------


     EDDAV:  cpu time    0.0502: real time    0.0502
       DOS:  cpu time    0.0002: real time    0.0002
    CHARGE:  cpu time    0.0349: real time    0.0349
    MIXING:  cpu time    0.0004: real time    0.0004
    --------------------------------------------
      LOOP:  cpu time    0.0857: real time    0.0857

 eigenvalue-minimisations  :   448
 total energy-change (2. order) : 0.5809397E-10  (-0.1336620E-12)
 number of electron       8.0000000 magnetization 
 augmentation part       -1.4662646 magnetization 

 Broyden mixing:
  rms(total) = 0.43149E+00    rms(broyden)= 0.43149E+00
  rms(prec ) = 0.87540E+00
  weight for this iteration     100.00

 Free energy of the ion-electron system (eV)
  ---------------------------------------------------
  alpha Z        PSCENC =         6.19609973
  Ewald energy   TEWEN  =      -208.59280682
  -Hartree energ DENC   =       -22.87803490
  -exchange      EXHF   =         0.00000000
  -V(xc)+E(xc)   XCENC  =       -67.86271711
  PAW double counting   =       241.28716128     -160.47085024
  entropy T*S    EENTRO =        -0.00003013
  eigenvalues    EBANDS =       -19.61697119
  atomic energy  EATOM  =       223.97639693
  Solvation  Ediel_sol  =         0.00000000
  ---------------------------------------------------
  free energy    TOTEN  =        -7.96175245 eV

  energy without entropy =       -7.96172232  energy(sigma->0) =       -7.96173738


--------------------------------------------------------------------------------------------------------




--------------------------------------- Iteration      1(   9)  ---------------------------------------


    POTLOK:  cpu time    0.0068: real time    0.0068
    SETDIJ:  cpu time    0.1337: real time    0.1337
     EDDAV:  cpu time    0.0560: real time    0.0560
       DOS:  cpu time    0.0002: real time    0.0002
    CHARGE:  cpu time    0.0346: real time    0.0346
    MIXING:  cpu time    0.0006: real time    0.0006
    --------------------------------------------
      LOOP:  cpu time    0.2319: real time    0.2319

 eigenvalue-minimisations  :   536
 total energy-change (2. order) : 0.1710943E+00  (-0.2452767E-01)
 number of electron       8.0000000 magnetization 
 augmentation part       -1.4751880 magnetization 

 Broyden mixing:
  rms(total) = 0.32878E+00    rms(broyden)= 0.32878E+00
  rms(prec ) = 0.58430E+00
  weight for this iteration     100.00

 eigenvalues of (default mixing * dielectric matrix)
  average eigenvalue GAMMA=   3.5702
  3.5702

 Free energy of the ion-electron system (eV)
  ---------------------------------------------------
  alpha Z        PSCENC =         6.19609973
  Ewald energy   TEWEN  =      -208.59280682
  -Hartree energ DENC   =       -24.29588193
  -exchange      EXHF   =         0.00000000
  -V(xc)+E(xc)   XCENC  =       -67.65850646
  PAW double counting   =       278.17286032     -197.45713396
  entropy T*S    EENTRO =        -0.00003013
  eigenvalues    EBANDS =       -18.13165582
  atomic energy  EATOM  =       223.97639693
  Solvation  Ediel_sol  =         0.00000000
  ---------------------------------------------------
  free energy    TOTEN  =        -7.79065814 eV

  energy without entropy =       -7.79062801  energy(sigma->0) =       -7.79064307


--------------------------------------------------------------------------------------------------------




--------------------------------------- Iteration      1(  10)  ---------------------------------------


    POTLOK:  cpu time    0.0068: real time    0.0068
    SETDIJ:  cpu time    0.1337: real time    0.1337
     EDDAV:  cpu time    0.0581: real time    0.0581
       DOS:  cpu time    0.0002: real time    0.0002
    CHARGE:  cpu time    0.0344: real time    0.0344
    MIXING:  cpu time    0.0006: real time    0.0006
    --------------------------------------------
      LOOP:  cpu time    0.2338: real time    0.2338

 eigenvalue-minimisations  :   560
 total energy-change (2. order) : 0.8820869E-01  (-0.5429062E-01)
 number of electron       8.0000000 magnetization 
 augmentation part       -1.4885977 magnetization 

 Broyden mixing:
  rms(total) = 0.14262E+00    rms(broyden)= 0.14262E+00
  rms(prec ) = 0.21069E+00
  weight for this iteration     100.00

 eigenvalues of (default mixing * dielectric matrix)
  average eigenvalue GAMMA=   3.2706
  2.3909  4.1502

 Free energy of the ion-electron system (eV)
  ---------------------------------------------------
  alpha Z        PSCENC =         6.19609973
  Ewald energy   TEWEN  =      -208.59280682
  -Hartree energ DENC   =       -26.65737179
  -exchange      EXHF   =         0.00000000
  -V(xc)+E(xc)   XCENC  =       -67.27819482
  PAW double counting   =       375.50022976     -294.97505836
  entropy T*S    EENTRO =        -0.00003013
  eigenvalues    EBANDS =       -15.87171395
  atomic energy  EATOM  =       223.97639693
  Solvation  Ediel_sol  =         0.00000000
  ---------------------------------------------------
  free energy    TOTEN  =        -7.70244945 eV

  energy without entropy =       -7.70241932  energy(sigma->0) =       -7.70243438


--------------------------------------------------------------------------------------------------------




--------------------------------------- Iteration      1(  11)  ---------------------------------------


    POTLOK:  cpu time    0.0068: real time    0.0068
    SETDIJ:  cpu time    0.1340: real time    0.1340
     EDDAV:  cpu time    0.0554: real time    0.0554
       DOS:  cpu time    0.0002: real time    0.0002
    CHARGE:  cpu time    0.0347: real time    0.0347
    MIXING:  cpu time    0.0005: real time    0.0005
    --------------------------------------------
      LOOP:  cpu time    0.2315: real time    0.2315

 eigenvalue-minimisations  :   528
 total energy-change (2. order) : 0.7602122E-02  (-0.4118907E-02)
 number of electron       8.0000000 magnetization 
 augmentation part       -1.4902993 magnetization 

 Broyden mixing:
  rms(total) = 0.20474E-01    rms(broyden)= 0.20474E-01
  rms(prec ) = 0.33915E-01
  weight for this iteration     100.00

 eigenvalues of (default mixing * dielectric matrix)
  average eigenvalue GAMMA=   2.5616
  1.0560  4.3141  2.3147

 Free energy of the ion-electron system (eV)
  ---------------------------------------------------
  alpha Z        PSCENC =         6.19609973
  Ewald energy   TEWEN  =      -208.59280682
  -Hartree energ DENC   =       -26.76113116
  -exchange      EXHF   =         0.00000000
  -V(xc)+E(xc)   XCENC  =       -67.12357894
  PAW double counting   =       465.69879726     -385.28982712
  entropy T*S    EENTRO =        -0.00003013
  eigenvalues    EBANDS =       -15.79876707
  atomic energy  EATOM  =       223.97639693
  Solvation  Ediel_sol  =         0.00000000
  ---------------------------------------------------
  free energy    TOTEN  =        -7.69484732 eV

  energy without entropy =       -7.69481719  energy(sigma->0) =       -7.69483226


--------------------------------------------------------------------------------------------------------




--------------------------------------- Iteration      1(  12)  ---------------------------------------


    POTLOK:  cpu time    0.0068: real time    0.0068
    SETDIJ:  cpu time    0.1336: real time    0.1336
     EDDAV:  cpu time    0.0562: real time    0.0562
       DOS:  cpu time    0.0002: real time    0.0002
    CHARGE:  cpu time    0.0336: real time    0.0336
    MIXING:  cpu time    0.0006: real time    0.0006
    --------------------------------------------
      LOOP:  cpu time    0.2310: real time    0.2310

 eigenvalue-minimisations  :   576
 total energy-change (2. order) : 0.3301568E-04  (-0.1571978E-03)
 number of electron       8.0000000 magnetization 
 augmentation part       -1.4917030 magnetization 

 Broyden mixing:
  rms(total) = 0.16755E-01    rms(broyden)= 0.16755E-01
  rms(prec ) = 0.19378E-01
  weight for this iteration     100.00

 eigenvalues of (default mixing * dielectric matrix)
  average eigenvalue GAMMA=   2.8054
  4.2083  3.5773  2.2770  1.1589

 Free energy of the ion-electron system (eV)
  ---------------------------------------------------
  alpha Z        PSCENC =         6.19609973
  Ewald energy   TEWEN  =      -208.59280682
  -Hartree energ DENC   =       -26.89010313
  -exchange      EXHF   =         0.00000000
  -V(xc)+E(xc)   XCENC  =       -67.09993999
  PAW double counting   =       473.04169249     -392.64354824
  entropy T*S    EENTRO =        -0.00003013
  eigenvalues    EBANDS =       -15.68257514
  atomic energy  EATOM  =       223.97639693
  Solvation  Ediel_sol  =         0.00000000
  ---------------------------------------------------
  free energy    TOTEN  =        -7.69481431 eV

  energy without entropy =       -7.69478418  energy(sigma->0) =       -7.69479924


--------------------------------------------------------------------------------------------------------




--------------------------------------- Iteration      1(  13)  ---------------------------------------


    POTLOK:  cpu time    0.0059: real time    0.0059
    SETDIJ:  cpu time    0.1094: real time    0.1094
     EDDAV:  cpu time    0.0654: real time    0.0654
       DOS:  cpu time    0.0002: real time    0.0002
    CHARGE:  cpu time    0.0340: real time    0.0340
    MIXING:  cpu time    0.0005: real time    0.0005
    --------------------------------------------
      LOOP:  cpu time    0.2153: real time    0.2153

 eigenvalue-minimisations  :   704
 total energy-change (2. order) :-0.9989199E-04  (-0.3197381E-04)
 number of electron       8.0000000 magnetization 
 augmentation part       -1.4921056 magnetization 

 Broyden mixing:
  rms(total) = 0.69728E-02    rms(broyden)= 0.69728E-02
  rms(prec ) = 0.10465E-01
  weight for this iteration     100.00

 eigenvalues of (default mixing * dielectric matrix)
  average eigenvalue GAMMA=   2.8954
  5.2891  4.8904  2.1639  0.9954  1.1383

 Free energy of the ion-electron system (eV)
  ---------------------------------------------------
  alpha Z        PSCENC =         6.19609973
  Ewald energy   TEWEN  =      -208.59280682
  -Hartree energ DENC   =       -26.95238558
  -exchange      EXHF   =         0.00000000
  -V(xc)+E(xc)   XCENC  =       -67.09044438
  PAW double counting   =       473.19526863     -392.80051749
  entropy T*S    EENTRO =        -0.00003013
  eigenvalues    EBANDS =       -15.62649509
  atomic energy  EATOM  =       223.97639693
  Solvation  Ediel_sol  =         0.00000000
  ---------------------------------------------------
  free energy    TOTEN  =        -7.69491420 eV

  energy without entropy =       -7.69488407  energy(sigma->0) =       -7.69489914


--------------------------------------------------------------------------------------------------------




--------------------------------------- Iteration      1(  14)  ---------------------------------------


    POTLOK:  cpu time    0.0059: real time    0.0059
    SETDIJ:  cpu time    0.1098: real time    0.1098
     EDDAV:  cpu time    0.0498: real time    0.0498
       DOS:  cpu time    0.0002: real time    0.0002
    CHARGE:  cpu time    0.0340: real time    0.0340
    MIXING:  cpu time    0.0004: real time    0.0004
    --------------------------------------------
      LOOP:  cpu time    0.2000: real time    0.2000

 eigenvalue-minimisations  :   520
 total energy-change (2. order) : 0.1979647E-05  (-0.2259385E-04)
 number of electron       8.0000000 magnetization 
 augmentation part       -1.4918224 magnetization 

 Broyden mixing:
  rms(total) = 0.16477E-02    rms(broyden)= 0.16477E-02
  rms(prec ) = 0.18014E-02
  weight for this iteration     100.00

 eigenvalues of (default mixing * dielectric matrix)
  average eigenvalue GAMMA=   2.4665
  5.2102  4.8593  2.1618  1.0014  1.1587  0.4078

 Free energy of the ion-electron system (eV)
  ---------------------------------------------------
  alpha Z        PSCENC =         6.19609973
  Ewald energy   TEWEN  =      -208.59280682
  -Hartree energ DENC   =       -26.94120447
  -exchange      EXHF   =         0.00000000
  -V(xc)+E(xc)   XCENC  =       -67.08694744
  PAW double counting   =       474.09368947     -393.70167278
  entropy T*S    EENTRO =        -0.00003013
  eigenvalues    EBANDS =       -15.63843671
  atomic energy  EATOM  =       223.97639693
  Solvation  Ediel_sol  =         0.00000000
  ---------------------------------------------------
  free energy    TOTEN  =        -7.69491222 eV

  energy without entropy =       -7.69488209  energy(sigma->0) =       -7.69489716


--------------------------------------------------------------------------------------------------------




--------------------------------------- Iteration      1(  15)  ---------------------------------------


    POTLOK:  cpu time    0.0059: real time    0.0059
    SETDIJ:  cpu time    0.1095: real time    0.1095
     EDDAV:  cpu time    0.0506: real time    0.0506
       DOS:  cpu time    0.0002: real time    0.0002
    CHARGE:  cpu time    0.0338: real time    0.0338
    MIXING:  cpu time    0.0005: real time    0.0005
    --------------------------------------------
      LOOP:  cpu time    0.2005: real time    0.2005

 eigenvalue-minimisations  :   528
 total energy-change (2. order) :-0.5683690E-06  (-0.8379225E-06)
 number of electron       8.0000000 magnetization 
 augmentation part       -1.4918613 magnetization 

 Broyden mixing:
  rms(total) = 0.10272E-02    rms(broyden)= 0.10272E-02
  rms(prec ) = 0.12681E-02
  weight for this iteration     100.00

 eigenvalues of (default mixing * dielectric matrix)
  average eigenvalue GAMMA=   2.1525
  5.2127  4.8564  2.1625  1.0019  1.1539  0.4937  0.1862

 Free energy of the ion-electron system (eV)
  ---------------------------------------------------
  alpha Z        PSCENC =         6.19609973
  Ewald energy   TEWEN  =      -208.59280682
  -Hartree energ DENC   =       -26.94185291
  -exchange      EXHF   =         0.00000000
  -V(xc)+E(xc)   XCENC  =       -67.08680912
  PAW double counting   =       474.32799188     -393.93605901
  entropy T*S    EENTRO =        -0.00003013
  eigenvalues    EBANDS =       -15.63784334
  atomic energy  EATOM  =       223.97639693
  Solvation  Ediel_sol  =         0.00000000
  ---------------------------------------------------
  free energy    TOTEN  =        -7.69491279 eV

  energy without entropy =       -7.69488266  energy(sigma->0) =       -7.69489772


--------------------------------------------------------------------------------------------------------




--------------------------------------- Iteration      1(  16)  ---------------------------------------


    POTLOK:  cpu time    0.0059: real time    0.0059
    SETDIJ:  cpu time    0.1097: real time    0.1097
     EDDAV:  cpu time    0.0641: real time    0.0641
       DOS:  cpu time    0.0002: real time    0.0002
    CHARGE:  cpu time    0.0332: real time    0.0332
    MIXING:  cpu time    0.0012: real time    0.0012
    --------------------------------------------
      LOOP:  cpu time    0.2143: real time    0.2143

 eigenvalue-minimisations  :   688
 total energy-change (2. order) : 0.1889837E-06  (-0.2806254E-07)
 number of electron       8.0000000 magnetization 
 augmentation part       -1.4918574 magnetization 

 Broyden mixing:
  rms(total) = 0.51378E-03    rms(broyden)= 0.51377E-03
  rms(prec ) = 0.87256E-03
  weight for this iteration     100.00

 eigenvalues of (default mixing * dielectric matrix)
  average eigenvalue GAMMA=   2.7029
  5.6436  4.8833  4.8833  2.1819  1.0232  0.9836  1.0124  1.0124

 Free energy of the ion-electron system (eV)
  ---------------------------------------------------
  alpha Z        PSCENC =         6.19609973
  Ewald energy   TEWEN  =      -208.59280682
  -Hartree energ DENC   =       -26.94184268
  -exchange      EXHF   =         0.00000000
  -V(xc)+E(xc)   XCENC  =       -67.08696641
  PAW double counting   =       474.25286602     -393.86082539
  entropy T*S    EENTRO =        -0.00003013
  eigenvalues    EBANDS =       -15.63780384
  atomic energy  EATOM  =       223.97639693
  Solvation  Ediel_sol  =         0.00000000
  ---------------------------------------------------
  free energy    TOTEN  =        -7.69491260 eV

  energy without entropy =       -7.69488247  energy(sigma->0) =       -7.69489754


--------------------------------------------------------------------------------------------------------




--------------------------------------- Iteration      1(  17)  ---------------------------------------


    POTLOK:  cpu time    0.0059: real time    0.0059
    SETDIJ:  cpu time    0.1095: real time    0.1095
     EDDAV:  cpu time    0.0569: real time    0.0569
       DOS:  cpu time    0.0002: real time    0.0002
    CHARGE:  cpu time    0.0339: real time    0.0339
    MIXING:  cpu time    0.0005: real time    0.0005
    --------------------------------------------
      LOOP:  cpu time    0.2069: real time    0.2068

 eigenvalue-minimisations  :   600
 total energy-change (2. order) : 0.6266804E-06  (-0.2327365E-06)
 number of electron       8.0000000 magnetization 
 augmentation part       -1.4918827 magnetization 

 Broyden mixing:
  rms(total) = 0.18970E-03    rms(broyden)= 0.18967E-03
  rms(prec ) = 0.22708E-03
  weight for this iteration     100.00

 eigenvalues of (default mixing * dielectric matrix)
  average eigenvalue GAMMA=   2.6285
  5.2852  5.2852  4.8959  2.1547  1.8268  1.1375  1.1375  0.9490  0.9844

 Free energy of the ion-electron system (eV)
  ---------------------------------------------------
  alpha Z        PSCENC =         6.19609973
  Ewald energy   TEWEN  =      -208.59280682
  -Hartree energ DENC   =       -26.94562143
  -exchange      EXHF   =         0.00000000
  -V(xc)+E(xc)   XCENC  =       -67.08679850
  PAW double counting   =       474.20175234     -393.80964802
  entropy T*S    EENTRO =        -0.00003013
  eigenvalues    EBANDS =       -15.63425608
  atomic energy  EATOM  =       223.97639693
  Solvation  Ediel_sol  =         0.00000000
  ---------------------------------------------------
  free energy    TOTEN  =        -7.69491197 eV

  energy without entropy =       -7.69488184  energy(sigma->0) =       -7.69489691


--------------------------------------------------------------------------------------------------------




--------------------------------------- Iteration      1(  18)  ---------------------------------------


    POTLOK:  cpu time    0.0059: real time    0.0059
    SETDIJ:  cpu time    0.1094: real time    0.1094
     EDDAV:  cpu time    0.0327: real time    0.0327
       DOS:  cpu time    0.0002: real time    0.0002
    --------------------------------------------
      LOOP:  cpu time    0.1482: real time    0.1482

 eigenvalue-minimisations  :   280
 total energy-change (2. order) :-0.1748219E-07  (-0.7066173E-08)
 number of electron       8.0000000 magnetization 
 augmentation part       -1.4918827 magnetization 

 Free energy of the ion-electron system (eV)
  ---------------------------------------------------
  alpha Z        PSCENC =         6.19609973
  Ewald energy   TEWEN  =      -208.59280682
  -Hartree energ DENC   =       -26.94560639
  -exchange      EXHF   =         0.00000000
  -V(xc)+E(xc)   XCENC  =       -67.08679085
  PAW double counting   =       474.20562081     -393.81351147
  entropy T*S    EENTRO =        -0.00003013
  eigenvalues    EBANDS =       -15.63428381
  atomic energy  EATOM  =       223.97639693
  Solvation  Ediel_sol  =         0.00000000
  ---------------------------------------------------
  free energy    TOTEN  =        -7.69491199 eV

  energy without entropy =       -7.69488186  energy(sigma->0) =       -7.69489693


--------------------------------------------------------------------------------------------------------




 average (electrostatic) potential at core
  the test charge radii are     1.4837  1.0621
  (the norm of the test charge is              1.0000)
       1 -39.6625       2 -51.3805
 
 
 
 E-fermi :   2.6310     XC(G=0):  -8.5334     alpha+bet : -8.2257


 k-point     1 :       0.0000    0.0000    0.0000
  band No.  band energies     occupation 
      1      -8.7293      2.00000
      2       2.0694      2.00000
      3       2.6280      1.33336
      4       2.6280      1.33334
      5       2.6280      1.33331
      6       6.5239      0.00000
      7       6.5239      0.00000
      8       6.5239      0.00000

 k-point     2 :       0.1250   -0.0000   -0.0000
  band No.  band energies     occupation 
      1      -8.6070      2.00000
      2       0.6894      2.00000
      3       2.4608      2.00000
      4       2.4608      2.00000
      5       3.5152      0.00000
      6       6.6160      0.00000
      7       6.7759      0.00000
      8       6.7759      0.00000

 k-point     3 :       0.2500   -0.0000   -0.0000
  band No.  band energies     occupation 
      1      -8.2717      2.00000
      2      -0.9355      2.00000
      3       2.1269      2.00000
      4       2.1269      2.00000
      5       3.7057      0.00000
      6       7.1822      0.00000
      7       7.1822      0.00000
      8       7.5606      0.00000

 k-point     4 :       0.3750   -0.0000    0.0000
  band No.  band energies     occupation 
      1      -7.8512      2.00000
      2      -2.2113      2.00000
      3       1.8552      2.00000
      4       1.8552      2.00000
      5       3.5326      0.00000
      6       7.2948      0.00000
      7       7.2948      0.00000
      8       8.9109      0.00000

 k-point     5 :       0.5000   -0.0000   -0.0000
  band No.  band energies     occupation 
      1      -7.6359      2.00000
      2      -2.7237      2.00000
      3       1.7552      2.00000
      4       1.7552      2.00000
      5       3.4473      0.00000
      6       7.2742      0.00000
      7       7.2742      0.00000
      8       9.3561      0.00000

 k-point     6 :       0.1250    0.1250   -0.0000
  band No.  band energies     occupation 
      1      -8.5659      2.00000
      2       0.5856      2.00000
      3       2.1673      2.00000
      4       2.1673      2.00000
      5       4.0890      0.00000
      6       5.8843      0.00000
      7       7.2046      0.00000
      8       7.2046      0.00000

 k-point     7 :       0.2500    0.1250   -0.0000
  band No.  band energies     occupation 
      1      -8.2993      2.00000
      2      -0.6114      2.00000
      3       1.7628      2.00000
      4       1.7919      2.00000
      5       4.5741      0.00000
      6       5.9328      0.00000
      7       7.7471      0.00000
      8       7.7741      0.00000

 k-point     8 :       0.3750    0.1250   -0.0000
  band No.  band energies     occupation 
      1      -7.8955      2.00000
      2      -1.8781      2.00000
      3       1.2846      2.00000
      4       1.5514      2.00000
      5       4.4889      0.00000
      6       6.6435      0.00000
      7       7.9371      0.00000
      8       8.1752      0.00000

 k-point     9 :       0.5000    0.1250   -0.0000
  band No.  band energies     occupation 
      1      -7.5850      2.00000
      2      -2.6240      2.00000
      3       0.9407      2.00000
      4       1.5309      2.00000
      5       4.3634      0.00000
      6       6.8986      0.00000
      7       7.7670      0.00000
      8       9.2198      0.00000

 k-point    10 :      -0.3750    0.1250    0.0000
  band No.  band energies     occupation 
      1      -7.6595      2.00000
      2      -2.4567      2.00000
      3       0.8459      2.00000
      4       1.7314      2.00000
      5       4.3695      0.00000
      6       7.0806      0.00000
      7       7.5688      0.00000
      8       9.0478      0.00000

 k-point    11 :      -0.2500    0.1250    0.0000
  band No.  band energies     occupation 
      1      -8.0384      2.00000
      2      -1.4886      2.00000
      3       1.0628      2.00000
      4       2.0826      2.00000
      5       4.4489      0.00000
      6       7.1297      0.00000
      7       7.3066      0.00000
      8       7.8886      0.00000

 k-point    12 :      -0.1250    0.1250    0.0000
  band No.  band energies     occupation 
      1      -8.4123      2.00000
      2      -0.2355      2.00000
      3       1.6643      2.00000
      4       2.4134      2.00000
      5       4.1964      0.00000
      6       6.5252      0.00000
      7       6.8933      0.00000
      8       7.5646      0.00000

 k-point    13 :       0.2500    0.2500   -0.0000
  band No.  band energies     occupation 
      1      -8.1123      2.00000
      2      -1.0077      2.00000
      3       1.3717      2.00000
      4       1.3717      2.00000
      5       4.9435      0.00000
      6       5.2140      0.00000
      7       8.6553      0.00000
      8       8.6553      0.00000

 k-point    14 :       0.3750    0.2500   -0.0000
  band No.  band energies     occupation 
      1      -7.7713      2.00000
      2      -1.8496      2.00000
      3       0.8200      2.00000
      4       1.1025      2.00000
      5       4.9121      0.00000
      6       5.5715      0.00000
      7       8.4469      0.00000
      8       9.1455      0.00000

 k-point    15 :       0.5000    0.2500   -0.0000
  band No.  band energies     occupation 
      1      -7.4475      2.00000
      2      -2.5099      2.00000
      3       0.1837      2.00000
      4       1.0793      2.00000
      5       4.8798      0.00000
      6       6.6689      0.00000
      7       8.3932      0.00000
      8       8.9933      0.00000

 k-point    16 :      -0.3750    0.2500    0.0000
  band No.  band energies     occupation 
      1      -7.4037      2.00000
      2      -2.5827      2.00000
      3      -0.1324      2.00000
      4       1.3070      2.00000
      5       4.9773      0.00000
      6       7.2816      0.00000
      7       8.5792      0.00000
      8       8.9385      0.00000

 k-point    17 :      -0.2500    0.2500    0.0000
  band No.  band energies     occupation 
      1      -7.6825      2.00000
      2      -2.0971      2.00000
      3       0.1132      2.00000
      4       1.7082      2.00000
      5       5.0493      0.00000
      6       7.5279      0.00000
      7       7.7605      0.00000
      8       7.9698      0.00000

 k-point    18 :       0.3750    0.3750   -0.0000
  band No.  band energies     occupation 
      1      -7.5235      2.00000
      2      -2.2991      2.00000
      3       0.7816      2.00000
      4       0.7816      2.00000
      5       4.4438      0.00000
      6       4.9831      0.00000
      7      10.2225      0.00000
      8      10.2992      0.00000

 k-point    19 :       0.5000    0.3750   -0.0000
  band No.  band energies     occupation 
      1      -7.2839      2.00000
      2      -2.6945      2.00000
      3       0.2758      2.00000
      4       0.7086      2.00000
      5       4.5830      0.00000
      6       5.3272      0.00000
      7       9.8958      0.00000
      8      10.4860      0.00000

 k-point    20 :      -0.3750    0.3750   -0.0000
  band No.  band energies     occupation 
      1      -7.2313      2.00000
      2      -2.7293      2.00000
      3      -0.2750      2.00000
      4       0.9045      2.00000
      5       4.7706      0.00000
      6       6.7335      0.00000
      7       9.6155      0.00000
      8       9.7535      0.00000

 k-point    21 :       0.5000    0.5000   -0.0000
  band No.  band energies     occupation 
      1      -7.2059      2.00000
      2      -2.8559      2.00000
      3       0.5713      2.00000
      4       0.5713      2.00000
      5       4.3143      0.00000
      6       4.6889      0.00000
      7      11.3159      0.00000
      8      11.3586      0.00000

 k-point    22 :       0.3750    0.2500    0.1250
  band No.  band energies     occupation 
      1      -7.9924      2.00000
      2      -1.4182      2.00000
      3       0.8604      2.00000
      4       1.6578      2.00000
      5       5.1661      0.00000
      6       5.9056      0.00000
      7       7.7398      0.00000
      8       8.4277      0.00000

 k-point    23 :       0.5000    0.2500    0.1250
  band No.  band energies     occupation 
      1      -7.6162      2.00000
      2      -2.2564      2.00000
      3       0.3253      2.00000
      4       1.3310      2.00000
      5       5.2576      0.00000
      6       6.6028      0.00000
      7       7.7074      0.00000
      8       8.9304      0.00000

 k-point    24 :      -0.3750    0.2500    0.1250
  band No.  band energies     occupation 
      1      -7.4287      2.00000
      2      -2.6321      2.00000
      3       0.1694      2.00000
      4       1.1777      2.00000
      5       5.2231      0.00000
      6       6.7115      0.00000
      7       8.2196      0.00000
      8       9.3859      0.00000

 k-point    25 :       0.5000    0.3750    0.1250
  band No.  band energies     occupation 
      1      -7.4659      2.00000
      2      -2.3827      2.00000
      3       0.3395      2.00000
      4       0.7680      2.00000
      5       5.3445      0.00000
      6       5.5588      0.00000
      7       8.3111      0.00000
      8      10.2537      0.00000

 k-point    26 :      -0.3750    0.3750    0.1250
  band No.  band energies     occupation 
      1      -7.2644      2.00000
      2      -2.6710      2.00000
      3      -0.1277      2.00000
      4       0.6348      2.00000
      5       5.5126      0.00000
      6       6.7229      0.00000
      7       8.0634      0.00000
      8       9.6839      0.00000

 k-point    27 :      -0.2500    0.3750    0.1250
  band No.  band energies     occupation 
      1      -7.3380      2.00000
      2      -2.5687      2.00000
      3      -0.2331      2.00000
      4       0.8984      2.00000
      5       5.6704      0.00000
      6       7.2232      0.00000
      7       7.5406      0.00000
      8       9.7785      0.00000

 k-point    28 :      -0.3750    0.5000    0.1250
  band No.  band energies     occupation 
      1      -7.1948      2.00000
      2      -2.7934      2.00000
      3       0.2648      2.00000
      4       0.3163      2.00000
      5       5.1677      0.00000
      6       5.4457      0.00000
      7       9.6382      0.00000
      8       9.9860      0.00000

 k-point    29 :      -0.2500    0.5000    0.2500
  band No.  band energies     occupation 
      1      -7.1835      2.00000
      2      -2.7243      2.00000
      3      -0.0063      2.00000
      4       0.1055      2.00000
      5       6.5236      0.00000
      6       6.8998      0.00000
      7       7.4319      0.00000
      8       8.6724      0.00000


--------------------------------------------------------------------------------------------------------


 soft charge-density along one line, spin component           1
         0         1         2         3         4         5         6         7         8         9
 total charge-density along one line
 
 pseudopotential strength for first ion, spin component:           1
 21.630  25.877  -0.000  -0.000  -0.000  -0.000  -0.000  -0.000
 25.877  30.973  -0.000  -0.000  -0.000  -0.000  -0.000  -0.000
 -0.000  -0.000   3.974   0.000   0.000   6.827   0.000   0.000
 -0.000  -0.000   0.000   3.974   0.000   0.000   6.827   0.000
 -0.000  -0.000   0.000   0.000   3.974   0.000   0.000   6.827
 -0.000  -0.000   6.827   0.000   0.000  11.786   0.000   0.000
 -0.000  -0.000   0.000   6.827   0.000   0.000  11.786   0.000
 -0.000  -0.000   0.000   0.000   6.827   0.000   0.000  11.786
  0.000   0.000  -0.000   0.005  -0.000  -0.000   0.007  -0.000
  0.000   0.000  -0.000  -0.000   0.005  -0.000  -0.000   0.007
 -0.000  -0.000  -0.000   0.000  -0.000  -0.000   0.000  -0.000
  0.000   0.000   0.005  -0.000  -0.000   0.007  -0.000  -0.000
 -0.000  -0.000  -0.000   0.000   0.000  -0.000   0.000   0.000
 total augmentation occupancy for first ion, spin component:           1
  5.982  -2.884   0.000   0.000   0.000   0.000   0.000   0.000   0.000  -0.000   0.000   0.000   0.000
 -2.884   1.622   0.000   0.000   0.000  -0.000  -0.000   0.000   0.000   0.000  -0.000   0.000  -0.000
  0.000   0.000   2.585   0.000  -0.000  -0.691  -0.000   0.000   0.000  -0.000  -0.000   0.360  -0.000
  0.000   0.000   0.000   2.585  -0.000  -0.000  -0.691   0.000   0.360  -0.000   0.000   0.000   0.000
  0.000   0.000  -0.000  -0.000   2.585   0.000   0.000  -0.691   0.000   0.360   0.000   0.000  -0.000
  0.000  -0.000  -0.691  -0.000   0.000   0.196   0.000  -0.000  -0.000   0.000   0.000  -0.095   0.000
  0.000  -0.000  -0.000  -0.691   0.000   0.000   0.196  -0.000  -0.095   0.000  -0.000  -0.000  -0.000
  0.000  -0.000   0.000   0.000  -0.691  -0.000  -0.000   0.196  -0.000  -0.095   0.000  -0.000   0.000
  0.000  -0.000   0.000   0.360  -0.000  -0.000  -0.095  -0.000   0.086  -0.000   0.000   0.000   0.000
  0.000   0.000  -0.000  -0.000   0.360   0.000   0.000  -0.095  -0.000   0.086   0.000  -0.000  -0.000
  0.000  -0.000  -0.000   0.000   0.000   0.000  -0.000  -0.000   0.000   0.000   0.025  -0.000   0.000
  0.000  -0.000   0.360   0.000  -0.000  -0.095  -0.000  -0.000   0.000  -0.000  -0.000   0.086  -0.000
  0.000  -0.000   0.000   0.000  -0.000   0.000  -0.000   0.000   0.000  -0.000  -0.000  -0.000   0.025


------------------------ aborting loop because EDIFF is reached ----------------------------------------


 


 total charge     
 
# of ion       s       p       d       tot
------------------------------------------
    1        1.203   1.271   0.176   2.649
    2        1.229   1.522   0.016   2.767
--------------------------------------------------
tot          2.431   2.793   0.191   5.416
 
    CHARGE:  cpu time    0.0339: real time    0.0339
    FORLOC:  cpu time    0.0005: real time    0.0005
    FORNL :  cpu time    0.1689: real time    0.1689
    STRESS:  cpu time    0.5410: real time    0.5410
    FORCOR:  cpu time    0.0062: real time    0.0062
    FORHAR:  cpu time    0.0014: real time    0.0014
    MIXING:  cpu time    0.0004: real time    0.0004
    OFIELD:  cpu time    0.0000: real time    0.0000

  FORCE on cell =-STRESS in cart. coord.  units (eV):
  Direction    XX          YY          ZZ          XY          YZ          ZX
  --------------------------------------------------------------------------------------
  Alpha Z     6.19610     6.19610     6.19610
  Ewald     -69.53096   -69.53096   -69.53096    -0.00000    -0.00000     0.00000
  Hartree     8.98160     8.98160     8.98160     0.00000     0.00000     0.00000
  E(xc)     -30.99605   -30.99605   -30.99605    -0.00000    -0.00000    -0.00000
  Local     -34.15174   -34.15174   -34.15174     0.00000     0.00000     0.00000
  n-local    67.94050    68.79333    64.52455     1.68228    -0.95392     0.44879
  augment    -8.56231    -8.56231    -8.56231    -0.00000    -0.00000    -0.00000
  Kinetic    62.99435    62.77438    57.16365     3.82780    -1.66284     1.25878
  Fock        0.00000     0.00000     0.00000     0.00000     0.00000     0.00000
  -------------------------------------------------------------------------------------
  Total       0.00023     0.00023     0.00023     0.00000     0.00000    -0.00000
  in kB       0.00602     0.00602     0.00602     0.00000     0.00000    -0.00000
  external pressure =        0.01 kB  Pullay stress =        0.00 kB


 VOLUME and BASIS-vectors are now :
 -----------------------------------------------------------------------------
  energy-cutoff  :      416.00
  volume of cell :       59.90
      direct lattice vectors                 reciprocal lattice vectors
     0.000000000  3.105508023  3.105508023    -0.161004253  0.161004253  0.161004253
     3.105508023  0.000000000  3.105508023     0.161004253 -0.161004253  0.161004253
     3.105508023  3.105508023  0.000000000     0.161004253  0.161004253 -0.161004253

  length of vectors
     4.391851564  4.391851564  4.391851564     0.278867547  0.278867547  0.278867547


 FORCES acting on ions
    electron-ion (+dipol)            ewald-force                    non-local-force                 convergence-correction
 -----------------------------------------------------------------------------------------------
   -.516E-07 -.516E-07 -.484E-07   -.183E-15 0.399E-15 -.492E-15   0.413E-16 0.275E-16 0.279E-16   -.159E-09 -.159E-09 -.159E-09
   0.766E-07 0.766E-07 0.750E-07   0.185E-15 -.421E-15 0.447E-15   0.688E-16 0.688E-16 0.510E-16   0.104E-08 0.104E-08 0.104E-08
 -----------------------------------------------------------------------------------------------
   0.250E-07 0.250E-07 0.266E-07   0.133E-17 -.219E-16 -.451E-16   0.110E-15 0.963E-16 0.789E-16   0.877E-09 0.877E-09 0.877E-09
 
 
 POSITION                                       TOTAL-FORCE (eV/Angst)
 -----------------------------------------------------------------------------------
      0.00000      0.00000      0.00000        -0.000000     -0.000000     -0.000000
      1.55275      1.55275      1.55275         0.000000      0.000000      0.000000
 -----------------------------------------------------------------------------------
    total drift:                                0.000000      0.000000      0.000000


--------------------------------------------------------------------------------------------------------



  FREE ENERGIE OF THE ION-ELECTRON SYSTEM (eV)
  ---------------------------------------------------
  free  energy   TOTEN  =        -7.69491199 eV

  energy  without entropy=       -7.69488186  energy(sigma->0) =       -7.69489693
 


--------------------------------------------------------------------------------------------------------


    POTLOK:  cpu time    0.1177: real time    0.1177


--------------------------------------------------------------------------------------------------------




--------------------------------------------------------------------------------------------------------


  
 reached required accuracy - stopping structural energy minimisation
     LOOP+:  cpu time    3.7633: real time    3.7633
    4ORBIT:  cpu time    0.0000: real time    0.0000
 


 total charge     
 
# of ion       s       p       d       tot
------------------------------------------
    1        1.203   1.271   0.176   2.649
    2        1.229   1.522   0.016   2.767
--------------------------------------------------
tot          2.431   2.793   0.191   5.416
 

 total amount of memory used by VASP MPI-rank0    36810. kBytes
=======================================================================

   base      :      30000. kBytes
   nonl-proj :       1503. kBytes
   fftplans  :       3356. kBytes
   grid      :       1457. kBytes
   one-center:          8. kBytes
   wavefun   :        486. kBytes
 
  
  
 General timing and accounting informations for this job:
 ========================================================
  
                  Total CPU time used (sec):        4.322
                            User time (sec):        3.946
                          System time (sec):        0.376
                         Elapsed time (sec):        4.337
  
                   Maximum memory used (kb):       81948.
                   Average memory used (kb):           0.
  
                          Minor page faults:       260812
                          Major page faults:            0
                 Voluntary context switches:           45
