PROCAR new format
# of k-points:   29         # of bands:    8         # of ions:    2

 k-point     1 :    0.00000000 0.00000000 0.00000000     weight = 0.00195312

band     1 # energy   -8.72933712 # occ.  2.00000000
 
ion      s      p      d    tot
    1  0.244  0.000  0.000  0.244
    2  0.460  0.000  0.000  0.460
tot    0.704  0.000  0.000  0.704
 
band     2 # energy    2.06943751 # occ.  2.00000000
 
ion      s      p      d    tot
    1  0.477  0.000  0.000  0.477
    2  0.296  0.000  0.000  0.296
tot    0.773  0.000  0.000  0.773
 
band     3 # energy    2.62797793 # occ.  1.33335688
 
ion      s      p      d    tot
    1  0.000  0.118  0.102  0.220
    2  0.000  0.441  0.002  0.443
tot    0.000  0.560  0.104  0.663
 
band     4 # energy    2.62797814 # occ.  1.33333504
 
ion      s      p      d    tot
    1  0.000  0.118  0.102  0.220
    2  0.000  0.441  0.002  0.443
tot    0.000  0.560  0.104  0.663
 
band     5 # energy    2.62797840 # occ.  1.33330813
 
ion      s      p      d    tot
    1  0.000  0.118  0.102  0.220
    2  0.000  0.441  0.002  0.443
tot    0.000  0.560  0.104  0.663
 
band     6 # energy    6.52387957 # occ.  0.00000000
 
ion      s      p      d    tot
    1  0.000  0.575  0.012  0.587
    2  0.000  0.022  0.052  0.074
tot    0.000  0.597  0.064  0.661
 
band     7 # energy    6.52387965 # occ.  0.00000000
 
ion      s      p      d    tot
    1  0.000  0.575  0.012  0.587
    2  0.000  0.022  0.052  0.074
tot    0.000  0.597  0.064  0.661
 
band     8 # energy    6.52387967 # occ.  0.00000000
 
ion      s      p      d    tot
    1  0.000  0.575  0.012  0.587
    2  0.000  0.022  0.052  0.074
tot    0.000  0.597  0.064  0.661
 

 k-point     2 :    0.12500000-0.00000000-0.00000000     weight = 0.01562500

band     1 # energy   -8.60704695 # occ.  2.00000000
 
ion      s      p      d    tot
    1  0.231  0.007  0.001  0.239
    2  0.467  0.001  0.000  0.468
tot    0.698  0.007  0.001  0.707
 
band     2 # energy    0.68936210 # occ.  2.00000000
 
ion      s      p      d    tot
    1  0.299  0.070  0.039  0.409
    2  0.152  0.166  0.002  0.320
tot    0.451  0.236  0.041  0.729
 
band     3 # energy    2.46084393 # occ.  2.00000000
 
ion      s      p      d    tot
    1  0.000  0.149  0.089  0.238
    2  0.000  0.422  0.002  0.424
tot    0.000  0.571  0.092  0.662
 
band     4 # energy    2.46084430 # occ.  2.00000000
 
ion      s      p      d    tot
    1  0.000  0.149  0.089  0.238
    2  0.000  0.422  0.002  0.424
tot    0.000  0.571  0.092  0.662
 
band     5 # energy    3.51520512 # occ.  0.00000000
 
ion      s      p      d    tot
    1  0.205  0.117  0.029  0.352
    2  0.125  0.209  0.003  0.338
tot    0.331  0.326  0.033  0.689
 
band     6 # energy    6.61595742 # occ.  0.00000000
 
ion      s      p      d    tot
    1  0.042  0.379  0.038  0.460
    2  0.011  0.090  0.041  0.141
tot    0.053  0.469  0.079  0.601
 
band     7 # energy    6.77586779 # occ.  0.00000000
 
ion      s      p      d    tot
    1  0.000  0.546  0.023  0.569
    2  0.000  0.041  0.051  0.092
tot    0.000  0.586  0.074  0.661
 
band     8 # energy    6.77586788 # occ.  0.00000000
 
ion      s      p      d    tot
    1  0.000  0.546  0.023  0.569
    2  0.000  0.041  0.051  0.092
tot    0.000  0.586  0.074  0.661
 

 k-point     3 :    0.25000000-0.00000000-0.00000000     weight = 0.01562500

band     1 # energy   -8.27171245 # occ.  2.00000000
 
ion      s      p      d    tot
    1  0.191  0.025  0.004  0.220
    2  0.490  0.002  0.000  0.492
tot    0.681  0.027  0.004  0.713
 
band     2 # energy   -0.93547735 # occ.  2.00000000
 
ion      s      p      d    tot
    1  0.322  0.099  0.025  0.446
    2  0.104  0.160  0.002  0.266
tot    0.426  0.259  0.028  0.712
 
band     3 # energy    2.12689251 # occ.  2.00000000
 
ion      s      p      d    tot
    1  0.000  0.199  0.067  0.266
    2  0.000  0.393  0.003  0.395
tot    0.000  0.591  0.070  0.661
 
band     4 # energy    2.12689284 # occ.  2.00000000
 
ion      s      p      d    tot
    1  0.000  0.199  0.067  0.266
    2  0.000  0.393  0.003  0.395
tot    0.000  0.591  0.070  0.661
 
band     5 # energy    3.70566790 # occ.  0.00000000
 
ion      s      p      d    tot
    1  0.255  0.158  0.009  0.423
    2  0.122  0.098  0.010  0.231
tot    0.377  0.257  0.019  0.653
 
band     6 # energy    7.18219058 # occ.  0.00000000
 
ion      s      p      d    tot
    1  0.000  0.472  0.054  0.526
    2  0.000  0.061  0.050  0.112
tot    0.000  0.533  0.104  0.638
 
band     7 # energy    7.18219074 # occ.  0.00000000
 
ion      s      p      d    tot
    1  0.000  0.472  0.054  0.526
    2  0.000  0.061  0.050  0.112
tot    0.000  0.533  0.104  0.638
 
band     8 # energy    7.56059756 # occ.  0.00000000
 
ion      s      p      d    tot
    1  0.059  0.175  0.057  0.292
    2  0.030  0.217  0.024  0.270
tot    0.089  0.392  0.081  0.562
 

 k-point     4 :    0.37500000-0.00000000 0.00000000     weight = 0.01562500

band     1 # energy   -7.85115445 # occ.  2.00000000
 
ion      s      p      d    tot
    1  0.132  0.048  0.010  0.189
    2  0.531  0.002  0.000  0.533
tot    0.663  0.049  0.010  0.722
 
band     2 # energy   -2.21131618 # occ.  2.00000000
 
ion      s      p      d    tot
    1  0.379  0.104  0.008  0.492
    2  0.053  0.149  0.002  0.204
tot    0.432  0.253  0.010  0.696
 
band     3 # energy    1.85523167 # occ.  2.00000000
 
ion      s      p      d    tot
    1  0.000  0.232  0.052  0.284
    2  0.000  0.376  0.002  0.378
tot    0.000  0.608  0.054  0.662
 
band     4 # energy    1.85523197 # occ.  2.00000000
 
ion      s      p      d    tot
    1  0.000  0.232  0.052  0.284
    2  0.000  0.376  0.002  0.378
tot    0.000  0.608  0.054  0.662
 
band     5 # energy    3.53263882 # occ.  0.00000000
 
ion      s      p      d    tot
    1  0.287  0.134  0.016  0.437
    2  0.119  0.061  0.014  0.194
tot    0.406  0.195  0.030  0.631
 
band     6 # energy    7.29480195 # occ.  0.00000000
 
ion      s      p      d    tot
    1  0.000  0.382  0.095  0.477
    2  0.000  0.059  0.051  0.110
tot    0.000  0.441  0.146  0.587
 
band     7 # energy    7.29480220 # occ.  0.00000000
 
ion      s      p      d    tot
    1  0.000  0.382  0.095  0.477
    2  0.000  0.059  0.051  0.110
tot    0.000  0.441  0.146  0.587
 
band     8 # energy    8.91092325 # occ.  0.00000000
 
ion      s      p      d    tot
    1  0.022  0.105  0.069  0.196
    2  0.016  0.275  0.009  0.300
tot    0.038  0.380  0.078  0.496
 

 k-point     5 :    0.50000000-0.00000000-0.00000000     weight = 0.00781250

band     1 # energy   -7.63594283 # occ.  2.00000000
 
ion      s      p      d    tot
    1  0.095  0.060  0.013  0.168
    2  0.559  0.001  0.000  0.560
tot    0.655  0.060  0.013  0.728
 
band     2 # energy   -2.72367575 # occ.  2.00000000
 
ion      s      p      d    tot
    1  0.416  0.101  0.000  0.517
    2  0.022  0.146  0.002  0.170
tot    0.438  0.248  0.002  0.687
 
band     3 # energy    1.75519419 # occ.  2.00000000
 
ion      s      p      d    tot
    1  0.000  0.243  0.046  0.289
    2  0.000  0.370  0.002  0.372
tot    0.000  0.614  0.048  0.662
 
band     4 # energy    1.75519449 # occ.  2.00000000
 
ion      s      p      d    tot
    1  0.000  0.243  0.046  0.289
    2  0.000  0.370  0.002  0.372
tot    0.000  0.614  0.048  0.662
 
band     5 # energy    3.44733439 # occ.  0.00000000
 
ion      s      p      d    tot
    1  0.298  0.120  0.020  0.438
    2  0.119  0.054  0.014  0.187
tot    0.417  0.174  0.035  0.625
 
band     6 # energy    7.27424454 # occ.  0.00000000
 
ion      s      p      d    tot
    1  0.000  0.348  0.110  0.458
    2  0.000  0.055  0.052  0.107
tot    0.000  0.402  0.162  0.565
 
band     7 # energy    7.27424482 # occ.  0.00000000
 
ion      s      p      d    tot
    1  0.000  0.348  0.110  0.458
    2  0.000  0.055  0.052  0.107
tot    0.000  0.402  0.162  0.565
 
band     8 # energy    9.35613892 # occ.  0.00000000
 
ion      s      p      d    tot
    1  0.000  0.066  0.091  0.157
    2  0.000  0.209  0.001  0.210
tot    0.000  0.275  0.091  0.367
 

 k-point     6 :    0.12500000 0.12500000-0.00000000     weight = 0.01171875

band     1 # energy   -8.56588427 # occ.  2.00000000
 
ion      s      p      d    tot
    1  0.226  0.009  0.001  0.237
    2  0.470  0.001  0.000  0.470
tot    0.696  0.010  0.001  0.707
 
band     2 # energy    0.58562008 # occ.  2.00000000
 
ion      s      p      d    tot
    1  0.335  0.047  0.041  0.423
    2  0.165  0.154  0.002  0.321
tot    0.501  0.201  0.043  0.745
 
band     3 # energy    2.16729593 # occ.  2.00000000
 
ion      s      p      d    tot
    1  0.000  0.186  0.074  0.260
    2  0.000  0.389  0.003  0.392
tot    0.000  0.575  0.077  0.652
 
band     4 # energy    2.16729612 # occ.  2.00000000
 
ion      s      p      d    tot
    1  0.000  0.186  0.074  0.260
    2  0.000  0.389  0.003  0.392
tot    0.000  0.575  0.077  0.652
 
band     5 # energy    4.08896578 # occ.  0.00000000
 
ion      s      p      d    tot
    1  0.180  0.065  0.048  0.293
    2  0.107  0.293  0.000  0.400
tot    0.287  0.357  0.048  0.693
 
band     6 # energy    5.88428983 # occ.  0.00000000
 
ion      s      p      d    tot
    1  0.044  0.453  0.017  0.514
    2  0.011  0.013  0.042  0.066
tot    0.055  0.466  0.059  0.580
 
band     7 # energy    7.20460601 # occ.  0.00000000
 
ion      s      p      d    tot
    1  0.000  0.500  0.038  0.538
    2  0.000  0.078  0.051  0.129
tot    0.000  0.578  0.089  0.667
 
band     8 # energy    7.20460605 # occ.  0.00000000
 
ion      s      p      d    tot
    1  0.000  0.500  0.038  0.538
    2  0.000  0.078  0.051  0.129
tot    0.000  0.578  0.089  0.667
 

 k-point     7 :    0.25000000 0.12500000-0.00000000     weight = 0.04687500

band     1 # energy   -8.29928078 # occ.  2.00000000
 
ion      s      p      d    tot
    1  0.194  0.024  0.004  0.222
    2  0.488  0.002  0.000  0.490
tot    0.682  0.026  0.004  0.712
 
band     2 # energy   -0.61140417 # occ.  2.00000000
 
ion      s      p      d    tot
    1  0.350  0.071  0.032  0.452
    2  0.125  0.156  0.002  0.283
tot    0.475  0.227  0.034  0.736
 
band     3 # energy    1.76281201 # occ.  2.00000000
 
ion      s      p      d    tot
    1  0.026  0.214  0.054  0.294
    2  0.009  0.339  0.004  0.351
tot    0.035  0.552  0.058  0.645
 
band     4 # energy    1.79186026 # occ.  2.00000000
 
ion      s      p      d    tot
    1  0.000  0.228  0.055  0.283
    2  0.000  0.361  0.003  0.364
tot    0.000  0.589  0.058  0.647
 
band     5 # energy    4.57414152 # occ.  0.00000000
 
ion      s      p      d    tot
    1  0.201  0.104  0.032  0.337
    2  0.093  0.235  0.006  0.334
tot    0.294  0.339  0.037  0.671
 
band     6 # energy    5.93276863 # occ.  0.00000000
 
ion      s      p      d    tot
    1  0.047  0.374  0.035  0.456
    2  0.024  0.054  0.035  0.113
tot    0.071  0.428  0.070  0.569
 
band     7 # energy    7.74705935 # occ.  0.00000000
 
ion      s      p      d    tot
    1  0.008  0.343  0.068  0.419
    2  0.004  0.121  0.045  0.170
tot    0.012  0.464  0.113  0.589
 
band     8 # energy    7.77413610 # occ.  0.00000000
 
ion      s      p      d    tot
    1  0.000  0.442  0.061  0.503
    2  0.000  0.104  0.051  0.155
tot    0.000  0.546  0.112  0.658
 

 k-point     8 :    0.37500000 0.12500000-0.00000000     weight = 0.04687500

band     1 # energy   -7.89547495 # occ.  2.00000000
 
ion      s      p      d    tot
    1  0.138  0.046  0.009  0.194
    2  0.524  0.002  0.000  0.527
tot    0.663  0.049  0.009  0.720
 
band     2 # energy   -1.87807769 # occ.  2.00000000
 
ion      s      p      d    tot
    1  0.394  0.087  0.014  0.495
    2  0.072  0.149  0.002  0.223
tot    0.466  0.235  0.017  0.718
 
band     3 # energy    1.28459626 # occ.  2.00000000
 
ion      s      p      d    tot
    1  0.053  0.226  0.040  0.318
    2  0.016  0.297  0.004  0.316
tot    0.069  0.523  0.043  0.635
 
band     4 # energy    1.55141729 # occ.  2.00000000
 
ion      s      p      d    tot
    1  0.000  0.253  0.042  0.295
    2  0.000  0.350  0.002  0.352
tot    0.000  0.603  0.045  0.648
 
band     5 # energy    4.48891192 # occ.  0.00000000
 
ion      s      p      d    tot
    1  0.208  0.135  0.032  0.375
    2  0.083  0.172  0.012  0.267
tot    0.291  0.307  0.044  0.642
 
band     6 # energy    6.64347781 # occ.  0.00000000
 
ion      s      p      d    tot
    1  0.033  0.337  0.063  0.432
    2  0.017  0.079  0.036  0.133
tot    0.050  0.416  0.099  0.565
 
band     7 # energy    7.93712943 # occ.  0.00000000
 
ion      s      p      d    tot
    1  0.000  0.367  0.097  0.464
    2  0.000  0.095  0.052  0.147
tot    0.000  0.463  0.149  0.612
 
band     8 # energy    8.17520550 # occ.  0.00000000
 
ion      s      p      d    tot
    1  0.018  0.161  0.102  0.281
    2  0.015  0.157  0.035  0.207
tot    0.033  0.318  0.136  0.487
 

 k-point     9 :    0.50000000 0.12500000-0.00000000     weight = 0.04687500

band     1 # energy   -7.58498518 # occ.  2.00000000
 
ion      s      p      d    tot
    1  0.086  0.064  0.014  0.164
    2  0.564  0.001  0.000  0.565
tot    0.650  0.065  0.014  0.728
 
band     2 # energy   -2.62404071 # occ.  2.00000000
 
ion      s      p      d    tot
    1  0.443  0.087  0.002  0.532
    2  0.026  0.145  0.002  0.173
tot    0.469  0.232  0.004  0.704
 
band     3 # energy    0.94073297 # occ.  2.00000000
 
ion      s      p      d    tot
    1  0.061  0.234  0.032  0.327
    2  0.018  0.278  0.003  0.300
tot    0.080  0.512  0.035  0.627
 
band     4 # energy    1.53094189 # occ.  2.00000000
 
ion      s      p      d    tot
    1  0.000  0.259  0.039  0.298
    2  0.000  0.352  0.002  0.355
tot    0.000  0.612  0.041  0.653
 
band     5 # energy    4.36336591 # occ.  0.00000000
 
ion      s      p      d    tot
    1  0.220  0.138  0.032  0.390
    2  0.084  0.149  0.014  0.246
tot    0.304  0.286  0.046  0.636
 
band     6 # energy    6.89863207 # occ.  0.00000000
 
ion      s      p      d    tot
    1  0.014  0.266  0.099  0.379
    2  0.006  0.070  0.041  0.118
tot    0.020  0.336  0.140  0.497
 
band     7 # energy    7.76696091 # occ.  0.00000000
 
ion      s      p      d    tot
    1  0.000  0.332  0.114  0.446
    2  0.000  0.078  0.052  0.130
tot    0.000  0.410  0.166  0.577
 
band     8 # energy    9.21983480 # occ.  0.00000000
 
ion      s      p      d    tot
    1  0.020  0.155  0.088  0.263
    2  0.011  0.242  0.018  0.271
tot    0.031  0.397  0.107  0.534
 

 k-point    10 :   -0.37500000 0.12500000 0.00000000     weight = 0.04687500

band     1 # energy   -7.65953396 # occ.  2.00000000
 
ion      s      p      d    tot
    1  0.100  0.059  0.012  0.172
    2  0.553  0.001  0.000  0.555
tot    0.653  0.061  0.013  0.726
 
band     2 # energy   -2.45674287 # occ.  2.00000000
 
ion      s      p      d    tot
    1  0.430  0.088  0.004  0.522
    2  0.038  0.145  0.002  0.185
tot    0.467  0.234  0.007  0.707
 
band     3 # energy    0.84588850 # occ.  2.00000000
 
ion      s      p      d    tot
    1  0.054  0.242  0.030  0.326
    2  0.015  0.276  0.003  0.295
tot    0.070  0.518  0.033  0.621
 
band     4 # energy    1.73138916 # occ.  2.00000000
 
ion      s      p      d    tot
    1  0.000  0.245  0.046  0.290
    2  0.000  0.367  0.002  0.369
tot    0.000  0.611  0.048  0.660
 
band     5 # energy    4.36950939 # occ.  0.00000000
 
ion      s      p      d    tot
    1  0.225  0.145  0.027  0.398
    2  0.088  0.143  0.013  0.245
tot    0.314  0.289  0.041  0.643
 
band     6 # energy    7.08060651 # occ.  0.00000000
 
ion      s      p      d    tot
    1  0.009  0.255  0.106  0.370
    2  0.005  0.075  0.042  0.122
tot    0.015  0.330  0.148  0.492
 
band     7 # energy    7.56881693 # occ.  0.00000000
 
ion      s      p      d    tot
    1  0.000  0.367  0.098  0.465
    2  0.000  0.068  0.051  0.119
tot    0.000  0.435  0.149  0.584
 
band     8 # energy    9.04776674 # occ.  0.00000000
 
ion      s      p      d    tot
    1  0.031  0.138  0.073  0.241
    2  0.016  0.269  0.016  0.301
tot    0.047  0.407  0.089  0.543
 

 k-point    11 :   -0.25000000 0.12500000 0.00000000     weight = 0.04687500

band     1 # energy   -8.03842206 # occ.  2.00000000
 
ion      s      p      d    tot
    1  0.160  0.038  0.007  0.205
    2  0.510  0.002  0.000  0.512
tot    0.670  0.040  0.007  0.717
 
band     2 # energy   -1.48860857 # occ.  2.00000000
 
ion      s      p      d    tot
    1  0.375  0.086  0.019  0.480
    2  0.090  0.151  0.003  0.244
tot    0.465  0.237  0.022  0.724
 
band     3 # energy    1.06281498 # occ.  2.00000000
 
ion      s      p      d    tot
    1  0.035  0.246  0.035  0.316
    2  0.008  0.291  0.004  0.303
tot    0.043  0.537  0.039  0.618
 
band     4 # energy    2.08256468 # occ.  2.00000000
 
ion      s      p      d    tot
    1  0.000  0.209  0.063  0.271
    2  0.000  0.393  0.002  0.395
tot    0.000  0.601  0.065  0.666
 
band     5 # energy    4.44893966 # occ.  0.00000000
 
ion      s      p      d    tot
    1  0.222  0.158  0.017  0.397
    2  0.097  0.159  0.010  0.267
tot    0.319  0.317  0.028  0.664
 
band     6 # energy    7.12969969 # occ.  0.00000000
 
ion      s      p      d    tot
    1  0.031  0.289  0.086  0.405
    2  0.019  0.106  0.037  0.162
tot    0.049  0.395  0.123  0.567
 
band     7 # energy    7.30659610 # occ.  0.00000000
 
ion      s      p      d    tot
    1  0.000  0.465  0.057  0.521
    2  0.000  0.058  0.049  0.107
tot    0.000  0.523  0.106  0.629
 
band     8 # energy    7.88857777 # occ.  0.00000000
 
ion      s      p      d    tot
    1  0.026  0.175  0.070  0.271
    2  0.013  0.186  0.031  0.231
tot    0.039  0.361  0.101  0.501
 

 k-point    12 :   -0.12500000 0.12500000 0.00000000     weight = 0.02343750

band     1 # energy   -8.41234787 # occ.  2.00000000
 
ion      s      p      d    tot
    1  0.208  0.018  0.003  0.229
    2  0.480  0.001  0.000  0.481
tot    0.688  0.019  0.003  0.710
 
band     2 # energy   -0.23545228 # occ.  2.00000000
 
ion      s      p      d    tot
    1  0.329  0.074  0.034  0.437
    2  0.134  0.160  0.002  0.296
tot    0.463  0.234  0.037  0.734
 
band     3 # energy    1.66431692 # occ.  2.00000000
 
ion      s      p      d    tot
    1  0.012  0.225  0.053  0.291
    2  0.001  0.336  0.004  0.341
tot    0.013  0.561  0.057  0.632
 
band     4 # energy    2.41342082 # occ.  2.00000000
 
ion      s      p      d    tot
    1  0.000  0.162  0.083  0.245
    2  0.000  0.421  0.002  0.424
tot    0.000  0.583  0.085  0.668
 
band     5 # energy    4.19644480 # occ.  0.00000000
 
ion      s      p      d    tot
    1  0.210  0.137  0.019  0.365
    2  0.116  0.203  0.005  0.323
tot    0.326  0.340  0.023  0.689
 
band     6 # energy    6.52521537 # occ.  0.00000000
 
ion      s      p      d    tot
    1  0.053  0.306  0.057  0.416
    2  0.017  0.100  0.037  0.154
tot    0.070  0.406  0.094  0.571
 
band     7 # energy    6.89332828 # occ.  0.00000000
 
ion      s      p      d    tot
    1  0.000  0.541  0.027  0.568
    2  0.000  0.038  0.050  0.088
tot    0.000  0.578  0.077  0.655
 
band     8 # energy    7.56456718 # occ.  0.00000000
 
ion      s      p      d    tot
    1  0.004  0.382  0.052  0.439
    2  0.003  0.124  0.045  0.172
tot    0.007  0.507  0.098  0.611
 

 k-point    13 :    0.25000000 0.25000000-0.00000000     weight = 0.01171875

band     1 # energy   -8.11228163 # occ.  2.00000000
 
ion      s      p      d    tot
    1  0.169  0.036  0.006  0.210
    2  0.502  0.003  0.000  0.504
tot    0.671  0.038  0.006  0.715
 
band     2 # energy   -1.00766015 # occ.  2.00000000
 
ion      s      p      d    tot
    1  0.413  0.041  0.031  0.485
    2  0.121  0.147  0.003  0.271
tot    0.534  0.188  0.034  0.756
 
band     3 # energy    1.37168484 # occ.  2.00000000
 
ion      s      p      d    tot
    1  0.000  0.261  0.039  0.300
    2  0.000  0.335  0.002  0.337
tot    0.000  0.596  0.042  0.637
 
band     4 # energy    1.37168500 # occ.  2.00000000
 
ion      s      p      d    tot
    1  0.000  0.261  0.039  0.300
    2  0.000  0.335  0.002  0.337
tot    0.000  0.596  0.042  0.637
 
band     5 # energy    4.94346643 # occ.  0.00000000
 
ion      s      p      d    tot
    1  0.174  0.175  0.056  0.405
    2  0.001  0.093  0.031  0.126
tot    0.175  0.268  0.087  0.530
 
band     6 # energy    5.21396736 # occ.  0.00000000
 
ion      s      p      d    tot
    1  0.080  0.223  0.026  0.329
    2  0.096  0.168  0.009  0.272
tot    0.176  0.391  0.035  0.602
 
band     7 # energy    8.65528544 # occ.  0.00000000
 
ion      s      p      d    tot
    1  0.000  0.409  0.070  0.479
    2  0.000  0.144  0.050  0.194
tot    0.000  0.553  0.121  0.673
 
band     8 # energy    8.65528551 # occ.  0.00000000
 
ion      s      p      d    tot
    1  0.000  0.409  0.070  0.479
    2  0.000  0.144  0.050  0.194
tot    0.000  0.553  0.121  0.673
 

 k-point    14 :    0.37500000 0.25000000-0.00000000     weight = 0.04687500

band     1 # energy   -7.77127916 # occ.  2.00000000
 
ion      s      p      d    tot
    1  0.118  0.056  0.010  0.184
    2  0.535  0.003  0.000  0.538
tot    0.653  0.059  0.010  0.721
 
band     2 # energy   -1.84957139 # occ.  2.00000000
 
ion      s      p      d    tot
    1  0.468  0.041  0.019  0.528
    2  0.081  0.142  0.003  0.226
tot    0.548  0.183  0.022  0.754
 
band     3 # energy    0.81999081 # occ.  2.00000000
 
ion      s      p      d    tot
    1  0.018  0.272  0.026  0.316
    2  0.003  0.292  0.003  0.298
tot    0.021  0.564  0.029  0.614
 
band     4 # energy    1.10252785 # occ.  2.00000000
 
ion      s      p      d    tot
    1  0.000  0.281  0.028  0.309
    2  0.000  0.323  0.002  0.325
tot    0.000  0.604  0.030  0.634
 
band     5 # energy    4.91210859 # occ.  0.00000000
 
ion      s      p      d    tot
    1  0.123  0.188  0.061  0.372
    2  0.032  0.094  0.026  0.151
tot    0.155  0.282  0.087  0.523
 
band     6 # energy    5.57150106 # occ.  0.00000000
 
ion      s      p      d    tot
    1  0.122  0.163  0.050  0.336
    2  0.048  0.161  0.018  0.227
tot    0.170  0.324  0.069  0.563
 
band     7 # energy    8.44686510 # occ.  0.00000000
 
ion      s      p      d    tot
    1  0.009  0.213  0.123  0.345
    2  0.022  0.103  0.043  0.167
tot    0.030  0.315  0.166  0.512
 
band     8 # energy    9.14548444 # occ.  0.00000000
 
ion      s      p      d    tot
    1  0.000  0.356  0.096  0.452
    2  0.000  0.147  0.051  0.198
tot    0.000  0.503  0.147  0.650
 

 k-point    15 :    0.50000000 0.25000000-0.00000000     weight = 0.04687500

band     1 # energy   -7.44749978 # occ.  2.00000000
 
ion      s      p      d    tot
    1  0.059  0.076  0.015  0.150
    2  0.578  0.001  0.000  0.579
tot    0.637  0.077  0.015  0.729
 
band     2 # energy   -2.50994283 # occ.  2.00000000
 
ion      s      p      d    tot
    1  0.527  0.041  0.006  0.575
    2  0.031  0.139  0.003  0.173
tot    0.558  0.180  0.009  0.748
 
band     3 # energy    0.18369782 # occ.  2.00000000
 
ion      s      p      d    tot
    1  0.032  0.270  0.019  0.321
    2  0.007  0.255  0.002  0.264
tot    0.039  0.524  0.022  0.585
 
band     4 # energy    1.07932655 # occ.  2.00000000
 
ion      s      p      d    tot
    1  0.000  0.286  0.025  0.311
    2  0.000  0.324  0.002  0.326
tot    0.000  0.610  0.027  0.637
 
band     5 # energy    4.87982690 # occ.  0.00000000
 
ion      s      p      d    tot
    1  0.140  0.161  0.063  0.364
    2  0.046  0.102  0.022  0.170
tot    0.186  0.263  0.086  0.535
 
band     6 # energy    6.66894740 # occ.  0.00000000
 
ion      s      p      d    tot
    1  0.108  0.133  0.057  0.298
    2  0.021  0.215  0.023  0.259
tot    0.129  0.349  0.080  0.557
 
band     7 # energy    8.39323659 # occ.  0.00000000
 
ion      s      p      d    tot
    1  0.001  0.232  0.131  0.364
    2  0.032  0.071  0.039  0.143
tot    0.034  0.304  0.170  0.507
 
band     8 # energy    8.99333694 # occ.  0.00000000
 
ion      s      p      d    tot
    1  0.000  0.311  0.115  0.426
    2  0.000  0.125  0.052  0.178
tot    0.000  0.437  0.168  0.604
 

 k-point    16 :   -0.37500000 0.25000000 0.00000000     weight = 0.04687500

band     1 # energy   -7.40368824 # occ.  2.00000000
 
ion      s      p      d    tot
    1  0.051  0.077  0.016  0.144
    2  0.586  0.001  0.000  0.587
tot    0.636  0.078  0.017  0.731
 
band     2 # energy   -2.58265933 # occ.  2.00000000
 
ion      s      p      d    tot
    1  0.538  0.044  0.003  0.585
    2  0.022  0.138  0.004  0.163
tot    0.560  0.182  0.006  0.748
 
band     3 # energy   -0.13241706 # occ.  2.00000000
 
ion      s      p      d    tot
    1  0.029  0.272  0.017  0.318
    2  0.006  0.243  0.002  0.251
tot    0.035  0.515  0.018  0.569
 
band     4 # energy    1.30700071 # occ.  2.00000000
 
ion      s      p      d    tot
    1  0.000  0.274  0.032  0.306
    2  0.000  0.338  0.002  0.340
tot    0.000  0.612  0.034  0.646
 
band     5 # energy    4.97729819 # occ.  0.00000000
 
ion      s      p      d    tot
    1  0.165  0.164  0.053  0.383
    2  0.054  0.111  0.021  0.185
tot    0.219  0.275  0.074  0.568
 
band     6 # energy    7.28160339 # occ.  0.00000000
 
ion      s      p      d    tot
    1  0.071  0.106  0.065  0.242
    2  0.011  0.219  0.027  0.257
tot    0.082  0.325  0.092  0.499
 
band     7 # energy    8.57919644 # occ.  0.00000000
 
ion      s      p      d    tot
    1  0.000  0.336  0.098  0.434
    2  0.000  0.113  0.050  0.163
tot    0.000  0.449  0.148  0.597
 
band     8 # energy    8.93854866 # occ.  0.00000000
 
ion      s      p      d    tot
    1  0.030  0.208  0.112  0.351
    2  0.037  0.190  0.021  0.248
tot    0.068  0.398  0.133  0.598
 

 k-point    17 :   -0.25000000 0.25000000 0.00000000     weight = 0.02343750

band     1 # energy   -7.68248292 # occ.  2.00000000
 
ion      s      p      d    tot
    1  0.104  0.059  0.012  0.175
    2  0.547  0.002  0.000  0.550
tot    0.652  0.061  0.012  0.725
 
band     2 # energy   -2.09706641 # occ.  2.00000000
 
ion      s      p      d    tot
    1  0.472  0.058  0.011  0.541
    2  0.062  0.141  0.003  0.206
tot    0.534  0.199  0.014  0.747
 
band     3 # energy    0.11324900 # occ.  2.00000000
 
ion      s      p      d    tot
    1  0.026  0.272  0.019  0.318
    2  0.002  0.252  0.002  0.257
tot    0.028  0.524  0.022  0.574
 
band     4 # energy    1.70815371 # occ.  2.00000000
 
ion      s      p      d    tot
    1  0.000  0.246  0.046  0.292
    2  0.000  0.364  0.002  0.366
tot    0.000  0.609  0.048  0.657
 
band     5 # energy    5.04926033 # occ.  0.00000000
 
ion      s      p      d    tot
    1  0.201  0.174  0.029  0.403
    2  0.071  0.144  0.016  0.231
tot    0.271  0.318  0.045  0.635
 
band     6 # energy    7.52793427 # occ.  0.00000000
 
ion      s      p      d    tot
    1  0.034  0.106  0.072  0.213
    2  0.005  0.192  0.030  0.226
tot    0.038  0.299  0.102  0.439
 
band     7 # energy    7.76052687 # occ.  0.00000000
 
ion      s      p      d    tot
    1  0.036  0.224  0.105  0.365
    2  0.041  0.144  0.029  0.214
tot    0.078  0.367  0.134  0.579
 
band     8 # energy    7.96980511 # occ.  0.00000000
 
ion      s      p      d    tot
    1  0.000  0.413  0.068  0.482
    2  0.000  0.092  0.048  0.140
tot    0.000  0.505  0.116  0.621
 

 k-point    18 :    0.37500000 0.37500000-0.00000000     weight = 0.01171875

band     1 # energy   -7.52349356 # occ.  2.00000000
 
ion      s      p      d    tot
    1  0.072  0.074  0.013  0.159
    2  0.564  0.002  0.000  0.567
tot    0.636  0.076  0.013  0.726
 
band     2 # energy   -2.29908962 # occ.  2.00000000
 
ion      s      p      d    tot
    1  0.532  0.019  0.015  0.565
    2  0.053  0.139  0.003  0.194
tot    0.584  0.157  0.018  0.759
 
band     3 # energy    0.78160991 # occ.  2.00000000
 
ion      s      p      d    tot
    1  0.000  0.299  0.018  0.317
    2  0.000  0.309  0.001  0.310
tot    0.000  0.608  0.019  0.627
 
band     4 # energy    0.78161005 # occ.  2.00000000
 
ion      s      p      d    tot
    1  0.000  0.299  0.018  0.317
    2  0.000  0.309  0.001  0.310
tot    0.000  0.608  0.019  0.627
 
band     5 # energy    4.44376786 # occ.  0.00000000
 
ion      s      p      d    tot
    1  0.068  0.250  0.064  0.382
    2  0.036  0.019  0.028  0.083
tot    0.104  0.269  0.092  0.465
 
band     6 # energy    4.98313769 # occ.  0.00000000
 
ion      s      p      d    tot
    1  0.168  0.057  0.081  0.306
    2  0.030  0.142  0.023  0.194
tot    0.197  0.199  0.104  0.500
 
band     7 # energy   10.22247674 # occ.  0.00000000
 
ion      s      p      d    tot
    1  0.050  0.021  0.118  0.189
    2  0.039  0.229  0.024  0.291
tot    0.089  0.250  0.142  0.480
 
band     8 # energy   10.29921925 # occ.  0.00000000
 
ion      s      p      d    tot
    1  0.000  0.364  0.090  0.454
    2  0.000  0.194  0.042  0.236
tot    0.000  0.558  0.132  0.691
 

 k-point    19 :    0.50000000 0.37500000-0.00000000     weight = 0.04687500

band     1 # energy   -7.28385985 # occ.  2.00000000
 
ion      s      p      d    tot
    1  0.021  0.091  0.017  0.129
    2  0.601  0.001  0.000  0.602
tot    0.621  0.092  0.018  0.731
 
band     2 # energy   -2.69452057 # occ.  2.00000000
 
ion      s      p      d    tot
    1  0.594  0.007  0.007  0.607
    2  0.015  0.137  0.004  0.155
tot    0.608  0.144  0.010  0.762
 
band     3 # energy    0.27576843 # occ.  2.00000000
 
ion      s      p      d    tot
    1  0.005  0.300  0.013  0.318
    2  0.000  0.274  0.001  0.276
tot    0.005  0.574  0.014  0.594
 
band     4 # energy    0.70862787 # occ.  2.00000000
 
ion      s      p      d    tot
    1  0.000  0.304  0.015  0.319
    2  0.000  0.307  0.001  0.308
tot    0.000  0.612  0.016  0.627
 
band     5 # energy    4.58296958 # occ.  0.00000000
 
ion      s      p      d    tot
    1  0.072  0.200  0.078  0.351