<?xml version="1.0" encoding="ISO-8859-1"?>
<modeling>
 <generator>
  <i name="program" type="string">vasp </i>
  <i name="version" type="string">5.4.4.18Apr17-6-g9f103f2a35  </i>
  <i name="subversion" type="string">(build Apr 10 2018 17:34:00) complex            parallel </i>
  <i name="platform" type="string">LinuxIFC </i>
  <i name="date" type="string">2018 10 04 </i>
  <i name="time" type="string">08:22:02 </i>
 </generator>
 <incar>
  <i type="string" name="SYSTEM"> InAs</i>
  <i type="string" name="PREC">accurate  ! calcululation level (change</i>
  <i type="string" name="ALGO"> NORMAL    ! A Davidson blocked iteratio</i>
  <i type="logical" name="ADDGRID"> T  </i>
  <i type="int" name="ISPIN">     1</i>
  <i name="AMIX">      0.20000000</i>
  <i name="BMIX">      0.00100000</i>
  <i type="int" name="NELM">   100</i>
  <i type="int" name="NELMDL">    -8</i>
  <i type="int" name="NELMIN">     6</i>
  <i type="int" name="IBRION">     2</i>
  <i name="EDIFF">      0.00000010</i>
  <i name="EDIFFG">     -0.00100000</i>
  <i type="int" name="NSW">   100</i>
  <i type="int" name="ISIF">     3</i>
  <i name="ENCUT">    416.00000000</i>
  <i name="POTIM">      0.50000000</i>
  <i type="int" name="NEDOS">    11</i>
  <i type="logical" name="LREAL"> F  </i>
  <i type="logical" name="LPLANE"> T  </i>
  <i type="int" name="ISMEAR">     0</i>
  <i name="SIGMA">      0.01000000</i>
  <i type="int" name="NWRITE">     1</i>
  <i type="int" name="LMAXMIX">     6</i>
  <i type="logical" name="LWAVE"> F  </i>
  <i type="logical" name="LCHARG"> F  </i>
  <i type="int" name="LORBIT">    10</i>
  <i type="logical" name="LASPH"> T  </i>
  <v type="int" name="KPOINT_BSE">    -1     0     0     0</v>
  <i type="int" name="NELM">   100</i>
  <i type="logical" name="LASPH"> T  </i>
 </incar>
 <structure name="primitive_cell" >
  <crystal>
   <varray name="basis" >
    <v>       0.00000000       3.10550802       3.10550802 </v>
    <v>       3.10550802       0.00000000       3.10550802 </v>
    <v>       3.10550802       3.10550802       0.00000000 </v>
   </varray>
   <i name="volume">     59.90015722 </i>
   <varray name="rec_basis" >
    <v>      -0.16100425       0.16100425       0.16100425 </v>
    <v>       0.16100425      -0.16100425       0.16100425 </v>
    <v>       0.16100425       0.16100425      -0.16100425 </v>
   </varray>
  </crystal>
  <varray name="positions" >
   <v>       0.00000000       0.00000000       0.00000000 </v>
   <v>       0.25000000       0.25000000       0.25000000 </v>
  </varray>
 </structure>
 <varray name="primitive_index" >
  <v type="int" >        1 </v>
  <v type="int" >        2 </v>
 </varray>
 <kpoints>
  <generation param="Auto">
   <i name="subdivisionlength">     30.00000000 </i>
   <v type="int" name="divisions">       8        8        8 </v>
   <v name="usershift">      0.00000000       0.00000000       0.00000000 </v>
   <v name="genvec1">      0.12500000      -0.00000000       0.00000000 </v>
   <v name="genvec2">     -0.00000000       0.12500000      -0.00000000 </v>
   <v name="genvec3">      0.00000000       0.00000000       0.12500000 </v>
   <v name="shift">      0.00000000       0.00000000       0.00000000 </v>
  </generation>
  <varray name="kpointlist" >
   <v>       0.00000000       0.00000000       0.00000000 </v>
   <v>       0.12500000      -0.00000000      -0.00000000 </v>
   <v>       0.25000000      -0.00000000      -0.00000000 </v>
   <v>       0.37500000      -0.00000000       0.00000000 </v>
   <v>       0.50000000      -0.00000000      -0.00000000 </v>
   <v>       0.12500000       0.12500000      -0.00000000 </v>
   <v>       0.25000000       0.12500000      -0.00000000 </v>
   <v>       0.37500000       0.12500000      -0.00000000 </v>
   <v>       0.50000000       0.12500000      -0.00000000 </v>
   <v>      -0.37500000       0.12500000       0.00000000 </v>
   <v>      -0.25000000       0.12500000       0.00000000 </v>
   <v>      -0.12500000       0.12500000       0.00000000 </v>
   <v>       0.25000000       0.25000000      -0.00000000 </v>
   <v>       0.37500000       0.25000000      -0.00000000 </v>
   <v>       0.50000000       0.25000000      -0.00000000 </v>
   <v>      -0.37500000       0.25000000       0.00000000 </v>
   <v>      -0.25000000       0.25000000       0.00000000 </v>
   <v>       0.37500000       0.37500000      -0.00000000 </v>
   <v>       0.50000000       0.37500000      -0.00000000 </v>
   <v>      -0.37500000       0.37500000      -0.00000000 </v>
   <v>       0.50000000       0.50000000      -0.00000000 </v>
   <v>       0.37500000       0.25000000       0.12500000 </v>
   <v>       0.50000000       0.25000000       0.12500000 </v>
   <v>      -0.37500000       0.25000000       0.12500000 </v>
   <v>       0.50000000       0.37500000       0.12500000 </v>
   <v>      -0.37500000       0.37500000       0.12500000 </v>
   <v>      -0.25000000       0.37500000       0.12500000 </v>
   <v>      -0.37500000       0.50000000       0.12500000 </v>
   <v>      -0.25000000       0.50000000       0.25000000 </v>
  </varray>
  <varray name="weights" >
   <v>       0.00195312 </v>
   <v>       0.01562500 </v>
   <v>       0.01562500 </v>
   <v>       0.01562500 </v>
   <v>       0.00781250 </v>
   <v>       0.01171875 </v>
   <v>       0.04687500 </v>
   <v>       0.04687500 </v>
   <v>       0.04687500 </v>
   <v>       0.04687500 </v>
   <v>       0.04687500 </v>
   <v>       0.02343750 </v>
   <v>       0.01171875 </v>
   <v>       0.04687500 </v>
   <v>       0.04687500 </v>
   <v>       0.04687500 </v>
   <v>       0.02343750 </v>
   <v>       0.01171875 </v>
   <v>       0.04687500 </v>
   <v>       0.02343750 </v>
   <v>       0.00585938 </v>
   <v>       0.04687500 </v>
   <v>       0.09375000 </v>
   <v>       0.04687500 </v>
   <v>       0.04687500 </v>
   <v>       0.09375000 </v>
   <v>       0.04687500 </v>
   <v>       0.02343750 </v>
   <v>       0.01171875 </v>
  </varray>
 </kpoints>
 <parameters>
  <separator name="general" >
   <i type="string" name="SYSTEM">InAs</i>
   <i type="logical" name="LCOMPAT"> F  </i>
  </separator>
  <separator name="electronic" >
   <i type="string" name="PREC">accura</i>
   <i name="ENMAX">    416.00000000</i>
   <i name="ENAUG">    462.75800000</i>
   <i name="EDIFF">      0.00000010</i>
   <i type="int" name="IALGO">    38</i>
   <i type="int" name="IWAVPR">    11</i>
   <i type="int" name="NBANDS">     8</i>
   <i name="NELECT">      8.00000000</i>
   <i type="int" name="TURBO">     0</i>
   <i type="int" name="IRESTART">     0</i>
   <i type="int" name="NREBOOT">     0</i>
   <i type="int" name="NMIN">     0</i>
   <i name="EREF">      0.00000000</i>
   <separator name="electronic smearing" >
    <i type="int" name="ISMEAR">     0</i>
    <i name="SIGMA">      0.01000000</i>
    <i name="KSPACING">      0.50000000</i>
    <i type="logical" name="KGAMMA"> T  </i>
   </separator>
   <separator name="electronic projectors" >
    <i type="logical" name="LREAL"> F  </i>
    <v name="ROPT">      0.00000000      0.00000000</v>
    <i type="int" name="LMAXPAW">  -100</i>
    <i type="int" name="LMAXMIX">     6</i>
    <i type="logical" name="NLSPLINE"> F  </i>
   </separator>
   <separator name="electronic startup" >
    <i type="int" name="ISTART">     0</i>
    <i type="int" name="ICHARG">     2</i>
    <i type="int" name="INIWAV">     1</i>
   </separator>
   <separator name="electronic spin" >
    <i type="int" name="ISPIN">     1</i>
    <i type="logical" name="LNONCOLLINEAR"> F  </i>
    <v name="MAGMOM">      1.00000000      1.00000000</v>
    <i name="NUPDOWN">     -1.00000000</i>
    <i type="logical" name="LSORBIT"> F  </i>
    <v name="SAXIS">      0.00000000      0.00000000      1.00000000</v>
    <i type="logical" name="LSPIRAL"> F  </i>
    <v name="QSPIRAL">      0.00000000      0.00000000      0.00000000</v>
    <i type="logical" name="LZEROZ"> F  </i>
   </separator>
   <separator name="electronic exchange-correlation" >
    <i type="logical" name="LASPH"> T  </i>
    <i type="logical" name="LMETAGGA"> F  </i>
   </separator>
   <separator name="electronic convergence" >
    <i type="int" name="NELM">   100</i>
    <i type="int" name="NELMDL">    -8</i>
    <i type="int" name="NELMIN">     6</i>
    <i name="ENINI">    416.00000000</i>
    <separator name="electronic convergence detail" >
     <i type="logical" name="LDIAG"> T  </i>
     <i type="logical" name="LSUBROT"> F  </i>
     <i name="WEIMIN">      0.00100000</i>
     <i name="EBREAK">      0.00000000</i>
     <i name="DEPER">      0.30000000</i>
     <i type="int" name="NRMM">     4</i>
     <i name="TIME">      0.40000000</i>
    </separator>
   </separator>
   <separator name="electronic mixer" >
    <i name="AMIX">      0.20000000</i>
    <i name="BMIX">      0.00100000</i>
    <i name="AMIN">      0.10000000</i>
    <i name="AMIX_MAG">      0.80000000</i>
    <i name="BMIX_MAG">      0.00100000</i>
    <separator name="electronic mixer details" >
     <i type="int" name="IMIX">     4</i>
     <i type="logical" name="MIXFIRST"> F  </i>
     <i type="int" name="MAXMIX">   -45</i>
     <i name="WC">    100.00000000</i>
     <i type="int" name="INIMIX">     1</i>
     <i type="int" name="MIXPRE">     1</i>
     <i type="int" name="MREMOVE">     5</i>
    </separator>
   </separator>
   <separator name="electronic dipolcorrection" >
    <i type="logical" name="LDIPOL"> F  </i>
    <i type="logical" name="LMONO"> F  </i>
    <i type="int" name="IDIPOL">     0</i>
    <i name="EPSILON">      1.00000000</i>
    <v name="DIPOL">   -100.00000000   -100.00000000   -100.00000000</v>
    <i name="EFIELD">      0.00000000</i>
   </separator>
  </separator>
  <separator name="grids" >
   <i type="int" name="NGX">    30</i>
   <i type="int" name="NGY">    30</i>
   <i type="int" name="NGZ">    30</i>
   <i type="int" name="NGXF">    60</i>
   <i type="int" name="NGYF">    60</i>
   <i type="int" name="NGZF">    60</i>
   <i type="logical" name="ADDGRID"> T  </i>
  </separator>
  <separator name="ionic" >
   <i type="int" name="NSW">   100</i>
   <i type="int" name="IBRION">     2</i>
   <i type="int" name="MDALGO">     0</i>
   <i type="int" name="ISIF">     3</i>
   <i name="PSTRESS">      0.00000000</i>
   <i name="EDIFFG">     -0.00100000</i>
   <i type="int" name="NFREE">     1</i>
   <i name="POTIM">      0.50000000</i>
   <i name="SMASS">     -3.00000000</i>
   <i name="SCALEE">      1.00000000</i>
  </separator>
  <separator name="ionic md" >
   <i name="TEBEG">      0.00010000</i>
   <i name="TEEND">      0.00010000</i>
   <i type="int" name="NBLOCK">     1</i>
   <i type="int" name="KBLOCK">   100</i>
   <i type="int" name="NPACO">   256</i>
   <i name="APACO">     16.00000000</i>
  </separator>
  <separator name="symmetry" >
   <i type="int" name="ISYM">     2</i>
   <i name="SYMPREC">      0.00001000</i>
  </separator>
  <separator name="dos" >
   <i type="int" name="LORBIT">    10</i>
   <v name="RWIGS">     -1.00000000     -1.00000000</v>
   <i type="int" name="NEDOS">    11</i>
   <i name="EMIN">     10.00000000</i>
   <i name="EMAX">    -10.00000000</i>
   <i name="EFERMI">      0.00000000</i>
  </separator>
  <separator name="writing" >
   <i type="int" name="NWRITE">     1</i>
   <i type="logical" name="LWAVE"> F  </i>
   <i type="logical" name="LDOWNSAMPLE"> F  </i>
   <i type="logical" name="LCHARG"> F  </i>
   <i type="logical" name="LPARD"> F  </i>
   <i type="logical" name="LVTOT"> F  </i>
   <i type="logical" name="LVHAR"> F  </i>
   <i type="logical" name="LELF"> F  </i>
   <i type="logical" name="LOPTICS"> F  </i>
   <v name="STM">      0.00000000      0.00000000      0.00000000      0.00000000      0.00000000      0.00000000      0.00000000</v>
  </separator>
  <separator name="performance" >
   <i type="int" name="NPAR">     2</i>
   <i type="int" name="NSIM">     4</i>
   <i type="int" name="NBLK">    -1</i>
   <i type="logical" name="LPLANE"> T  </i>
   <i type="logical" name="LSCALAPACK"> T  </i>
   <i type="logical" name="LSCAAWARE"> F  </i>
   <i type="logical" name="LSCALU"> F  </i>
   <i type="logical" name="LASYNC"> F  </i>
   <i type="logical" name="LORBITALREAL"> F  </i>
  </separator>
  <separator name="miscellaneous" >
   <i type="int" name="IDIOT">     3</i>
   <i type="int" name="ISPECIAL">     0</i>
   <i type="logical" name="LMUSIC"> F  </i>
   <v name="POMASS">    114.82000000     74.92200000</v>
   <v name="DARWINR">      0.00000000      0.00000000</v>
   <v name="DARWINV">      1.00000000      1.00000000</v>
   <i type="logical" name="LCORR"> T  </i>
  </separator>
  <i type="logical" name="GGA_COMPAT"> T  </i>
  <i type="logical" name="LBERRY"> F  </i>
  <i type="int" name="ICORELEVEL">     0</i>
  <i type="logical" name="LDAU"> F  </i>
  <i type="int" name="I_CONSTRAINED_M">     0</i>
  <separator name="electronic exchange-correlation" >
   <i type="string" name="GGA">--</i>
   <i type="int" name="VOSKOWN">     0</i>
   <i type="logical" name="LHFCALC"> F  </i>
   <i type="string" name="PRECFOCK"></i>
   <i type="logical" name="LSYMGRAD"> F  </i>
   <i type="logical" name="LHFONE"> F  </i>
   <i type="logical" name="LRHFCALC"> F  </i>
   <i type="logical" name="LTHOMAS"> F  </i>
   <i type="logical" name="LMODELHF"> F  </i>
   <i name="ENCUT4O">     -1.00000000</i>
   <i type="int" name="EXXOEP">     0</i>
   <i type="int" name="FOURORBIT">     0</i>
   <i name="AEXX">      0.00000000</i>
   <i name="HFALPHA">      0.00000000</i>
   <i name="MCALPHA">      0.00000000</i>
   <i name="ALDAX">      1.00000000</i>
   <i name="AGGAX">      1.00000000</i>
   <i name="ALDAC">      1.00000000</i>
   <i name="AGGAC">      1.00000000</i>
   <i type="int" name="NKREDX">     1</i>
   <i type="int" name="NKREDY">     1</i>
   <i type="int" name="NKREDZ">     1</i>
   <i type="logical" name="SHIFTRED"> F  </i>
   <i type="logical" name="ODDONLY"> F  </i>
   <i type="logical" name="EVENONLY"> F  </i>
   <i type="int" name="LMAXFOCK">     0</i>
   <i type="int" name="NMAXFOCKAE">     0</i>
   <i type="logical" name="LFOCKAEDFT"> F  </i>
   <i name="HFSCREEN">      0.00000000</i>
   <i name="HFSCREENC">      0.00000000</i>
   <i type="int" name="NBANDSGWLOW">     0</i>
  </separator>
  <separator name="vdW DFT" >
   <i type="logical" name="LUSE_VDW"> F  </i>
   <i name="Zab_VDW">     -0.84910000</i>
   <i name="PARAM1">      0.12340000</i>
   <i name="PARAM2">      1.00000000</i>
   <i name="PARAM3">      0.00000000</i>
  </separator>
  <separator name="model GW" >
   <i type="int" name="MODEL_GW">     0</i>
   <i name="MODEL_EPS0">     17.97004717</i>
   <i name="MODEL_ALPHA">      1.00000000</i>
  </separator>
  <separator name="linear response parameters" >
   <i type="logical" name="LEPSILON"> F  </i>
   <i type="logical" name="LRPA"> F  </i>
   <i type="logical" name="LNABLA"> F  </i>
   <i type="logical" name="LVEL"> F  </i>
   <i type="int" name="KINTER">     0</i>
   <i name="CSHIFT">      0.10000000</i>
   <i name="OMEGAMAX">     -1.00000000</i>
   <i name="DEG_THRESHOLD">      0.00200000</i>
   <i name="RTIME">     -0.10000000</i>
   <i name="WPLASMAI">      0.00000000</i>
   <v name="DFIELD">      0.00000000      0.00000000      0.00000000</v>
   <v name="WPLASMA">      0.00000000      0.00000000      0.00000000      0.00000000      0.00000000      0.00000000      0.00000000      0.00000000      0.00000000</v>
  </separator>
  <separator name="orbital magnetization" >
   <i type="logical" name="NUCIND"> F  </i>
   <v name="MAGPOS">      0.00000000      0.00000000      0.00000000</v>
   <i type="logical" name="LNICSALL"> T  </i>
   <i type="logical" name="ORBITALMAG"> F  </i>
   <i type="logical" name="LMAGBLOCH"> F  </i>
   <i type="logical" name="LCHIMAG"> F  </i>
   <i type="logical" name="LGAUGE"> T  </i>
   <i type="int" name="MAGATOM">     0</i>
   <v name="MAGDIPOL">      0.00000000      0.00000000      0.00000000</v>
   <v name="AVECCONST">      0.00000000      0.00000000      0.00000000</v>
  </separator>
  <separator name="response functions" >
   <i type="logical" name="LADDER"> F  </i>
   <i type="logical" name="LRPAFORCE"> F  </i>
   <i type="logical" name="LFXC"> F  </i>
   <i type="logical" name="LHARTREE"> T  </i>
   <i type="int" name="IBSE">     0</i>
   <v type="int" name="KPOINT">    -1     0     0     0</v>
   <i type="logical" name="LTCTE"> F  </i>
   <i type="logical" name="LTETE"> F  </i>
   <i type="logical" name="LTRIPLET"> F  </i>
   <i type="logical" name="LFXCEPS"> F  </i>
   <i type="logical" name="LFXHEG"> F  </i>
   <i type="int" name="NATURALO">     2</i>
   <i type="logical" name="L2ORDER"> F  </i>
   <i type="logical" name="LMP2LT"> F  </i>
   <i type="logical" name="LUSEW"> F  </i>
   <i name="ENCUTGW">     -2.00000000</i>
   <i name="ENCUTGWSOFT">     -2.00000000</i>
   <i name="ENCUTLF">     -1.00000000</i>
   <i type="int" name="LMAXMP2">    -1</i>
   <i name="SCISSOR">      0.00000000</i>
   <i type="int" name="NOMEGA">     0</i>
   <i type="int" name="NOMEGAR">     0</i>
   <i type="int" name="NBANDSGW">    -1</i>
   <i type="int" name="NBANDSO">    -1</i>
   <i type="int" name="NBANDSV">    -1</i>
   <i type="int" name="NELM">   100</i>
   <i type="int" name="NELMHF">     1</i>
   <i type="int" name="DIM">     3</i>
   <i type="int" name="ANTIRES">     0</i>
   <i name="OMEGAMAX">    -30.00000000</i>
   <i name="OMEGAMIN">    -30.00000000</i>
   <i name="OMEGATL">   -200.00000000</i>
   <i type="int" name="OMEGAGRID">   140</i>
   <i name="CSHIFT">     -0.10000000</i>
   <i type="logical" name="SELFENERGY"> F  </i>
   <i type="logical" name="LSPECTRAL"> F  </i>
   <i type="logical" name="LSPECTRALGW"> F  </i>
   <i type="logical" name="LSINGLES"> F  </i>
   <i type="logical" name="LFERMIGW"> F  </i>
   <i type="logical" name="ODDONLYGW"> F  </i>
   <i type="logical" name="EVENONLYGW"> F  </i>
   <i type="int" name="NKREDLFX">     1</i>
   <i type="int" name="NKREDLFY">     1</i>
   <i type="int" name="NKREDLFZ">     1</i>
   <i type="int" name="MAXMEM">  2800</i>
   <i type="int" name="TELESCOPE">     0</i>
   <i type="int" name="TAUPAR">     1</i>
   <i type="int" name="OMEGAPAR">    -1</i>
   <i name="LAMBDA">      1.00000000</i>
  </separator>
  <separator name="External order field" >
   <i name="OFIELD_KAPPA">      0.00000000</i>
   <v name="OFIELD_K">      0.00000000      0.00000000      0.00000000</v>
   <i name="OFIELD_Q6_NEAR">      0.00000000</i>
   <i name="OFIELD_Q6_FAR">      0.00000000</i>
   <i name="OFIELD_A">      0.00000000</i>
  </separator>
 </parameters>
 <atominfo>
  <atoms>       2 </atoms>
  <types>       2 </types>
  <array name="atoms" >
   <dimension dim="1">ion</dimension>
   <field type="string">element</field>
   <field type="int">atomtype</field>
   <set>
    <rc><c>In</c><c>   1</c></rc>
    <rc><c>As</c><c>   2</c></rc>
   </set>
  </array>
  <array name="atomtypes" >
   <dimension dim="1">type</dimension>
   <field type="int">atomspertype</field>
   <field type="string">element</field>
   <field>mass</field>
   <field>valence</field>
   <field type="string">pseudopotential</field>
   <set>
    <rc><c>   1</c><c>In</c><c>    114.82000000</c><c>      3.00000000</c><c>  PAW_PBE In 08Apr2002                  </c></rc>
    <rc><c>   1</c><c>As</c><c>     74.92200000</c><c>      5.00000000</c><c>  PAW_PBE As 22Sep2009                  </c></rc>
   </set>
  </array>
 </atominfo>
 <structure name="initialpos" >
  <crystal>
   <varray name="basis" >
    <v>       0.00000000       3.10550802       3.10550802 </v>
    <v>       3.10550802       0.00000000       3.10550802 </v>
    <v>       3.10550802       3.10550802       0.00000000 </v>
   </varray>
   <i name="volume">     59.90015722 </i>
   <varray name="rec_basis" >
    <v>      -0.16100425       0.16100425       0.16100425 </v>
    <v>       0.16100425      -0.16100425       0.16100425 </v>
    <v>       0.16100425       0.16100425      -0.16100425 </v>
   </varray>
  </crystal>
  <varray name="positions" >
   <v>       0.00000000       0.00000000       0.00000000 </v>
   <v>       0.25000000       0.25000000       0.25000000 </v>
  </varray>
 </structure>
 <calculation>
  <scstep>
   <time name="dav">    0.05    0.05</time>
   <time name="total">    0.18    0.18</time>
   <energy>
    <i name="alphaZ">      6.19609973 </i>
    <i name="ewald">   -208.59280682 </i>
    <i name="hartreedc">    -22.87803490 </i>
    <i name="XCdc">    -67.86271711 </i>
    <i name="pawpsdc">    241.28716128 </i>
    <i name="pawaedc">   -160.47085024 </i>
    <i name="eentropy">     -0.00028258 </i>
    <i name="bandstr">      4.39179594 </i>
    <i name="atom">    223.97639693 </i>
    <i name="e_fr_energy">     16.04676222 </i>
    <i name="e_wo_entrp">     16.04704481 </i>
    <i name="e_0_energy">     16.04690352 </i>
   </energy>
  </scstep>
  <scstep>
   <time name="dav">    0.07    0.07</time>
   <time name="total">    0.07    0.07</time>
   <energy>
    <i name="e_fr_energy">     -7.31069723 </i>
    <i name="e_wo_entrp">     -7.31069723 </i>
    <i name="e_0_energy">     -7.31069723 </i>
   </energy>
  </scstep>
  <scstep>
   <time name="dav">    0.06    0.06</time>
   <time name="total">    0.06    0.06</time>
   <energy>
    <i name="e_fr_energy">     -7.95928265 </i>
    <i name="e_wo_entrp">     -7.95925254 </i>
    <i name="e_0_energy">     -7.95926759 </i>
   </energy>
  </scstep>
  <scstep>
   <time name="dav">    0.07    0.07</time>
   <time name="total">    0.07    0.07</time>
   <energy>
    <i name="e_fr_energy">     -7.96175088 </i>
    <i name="e_wo_entrp">     -7.96172075 </i>
    <i name="e_0_energy">     -7.96173582 </i>
   </energy>
  </scstep>
  <scstep>
   <time name="dav">    0.06    0.06</time>
   <time name="total">    0.06    0.06</time>
   <energy>
    <i name="e_fr_energy">     -7.96175244 </i>
    <i name="e_wo_entrp">     -7.96172231 </i>
    <i name="e_0_energy">     -7.96173738 </i>
   </energy>
  </scstep>
  <scstep>
   <time name="dav">    0.07    0.07</time>
   <time name="total">    0.07    0.07</time>
   <energy>
    <i name="e_fr_energy">     -7.96175245 </i>
    <i name="e_wo_entrp">     -7.96172232 </i>
    <i name="e_0_energy">     -7.96173738 </i>
   </energy>
  </scstep>
  <scstep>
   <time name="dav">    0.06    0.06</time>
   <time name="total">    0.06    0.06</time>
   <energy>
    <i name="e_fr_energy">     -7.96175245 </i>
    <i name="e_wo_entrp">     -7.96172232 </i>
    <i name="e_0_energy">     -7.96173738 </i>
   </energy>
  </scstep>
  <scstep>
   <time name="dav">    0.05    0.05</time>
   <time name="total">    0.09    0.09</time>
   <energy>
    <i name="e_fr_energy">     -7.96175245 </i>
    <i name="e_wo_entrp">     -7.96172232 </i>
    <i name="e_0_energy">     -7.96173738 </i>
   </energy>
  </scstep>
  <scstep>
   <time name="dav">    0.06    0.06</time>
   <time name="total">    0.23    0.23</time>
   <energy>
    <i name="e_fr_energy">     -7.79065814 </i>
    <i name="e_wo_entrp">     -7.79062801 </i>
    <i name="e_0_energy">     -7.79064307 </i>
   </energy>
  </scstep>
  <scstep>
   <time name="dav">    0.06    0.06</time>
   <time name="total">    0.23    0.23</time>
   <energy>
    <i name="e_fr_energy">     -7.70244945 </i>
    <i name="e_wo_entrp">     -7.70241932 </i>
    <i name="e_0_energy">     -7.70243438 </i>
   </energy>
  </scstep>
  <scstep>
   <time name="dav">    0.06    0.06</time>
   <time name="total">    0.23    0.23</time>
   <energy>
    <i name="e_fr_energy">     -7.69484732 </i>
    <i name="e_wo_entrp">     -7.69481719 </i>
    <i name="e_0_energy">     -7.69483226 </i>
   </energy>
  </scstep>
  <scstep>
   <time name="dav">    0.06    0.06</time>
   <time name="total">    0.23    0.23</time>
   <energy>
    <i name="e_fr_energy">     -7.69481431 </i>
    <i name="e_wo_entrp">     -7.69478418 </i>
    <i name="e_0_energy">     -7.69479924 </i>
   </energy>
  </scstep>
  <scstep>
   <time name="dav">    0.07    0.07</time>
   <time name="total">    0.22    0.22</time>
   <energy>
    <i name="e_fr_energy">     -7.69491420 </i>
    <i name="e_wo_entrp">     -7.69488407 </i>
    <i name="e_0_energy">     -7.69489914 </i>
   </energy>
  </scstep>
  <scstep>
   <time name="dav">    0.05    0.05</time>
   <time name="total">    0.20    0.20</time>
   <energy>
    <i name="e_fr_energy">     -7.69491222 </i>
    <i name="e_wo_entrp">     -7.69488209 </i>
    <i name="e_0_energy">     -7.69489716 </i>
   </energy>
  </scstep>
  <scstep>
   <time name="dav">    0.05    0.05</time>
   <time name="total">    0.20    0.20</time>
   <energy>
    <i name="e_fr_energy">     -7.69491279 </i>
    <i name="e_wo_entrp">     -7.69488266 </i>
    <i name="e_0_energy">     -7.69489772 </i>
   </energy>
  </scstep>
  <scstep>
   <time name="dav">    0.06    0.06</time>
   <time name="total">    0.21    0.21</time>
   <energy>
    <i name="e_fr_energy">     -7.69491260 </i>
    <i name="e_wo_entrp">     -7.69488247 </i>
    <i name="e_0_energy">     -7.69489754 </i>
   </energy>
  </scstep>
  <scstep>
   <time name="dav">    0.06    0.06</time>
   <time name="total">    0.21    0.21</time>
   <energy>
    <i name="e_fr_energy">     -7.69491197 </i>
    <i name="e_wo_entrp">     -7.69488184 </i>
    <i name="e_0_energy">     -7.69489691 </i>
   </energy>
  </scstep>
  <scstep>
   <time name="dav">    0.03    0.03</time>
   <time name="total">    0.15    0.15</time>
   <energy>
    <i name="alphaZ">      6.19609973 </i>
    <i name="ewald">   -208.59280682 </i>
    <i name="hartreedc">    -26.94560639 </i>
    <i name="XCdc">    -67.08679085 </i>
    <i name="pawpsdc">    474.20562081 </i>
    <i name="pawaedc">   -393.81351147 </i>
    <i name="eentropy">     -0.00003013 </i>
    <i name="bandstr">    -15.63428381 </i>
    <i name="atom">    223.97639693 </i>
    <i name="e_fr_energy">     -7.69491199 </i>
    <i name="e_wo_entrp">     -7.69488186 </i>
    <i name="e_0_energy">     -7.69489693 </i>
   </energy>
  </scstep>
  <structure>
   <crystal>
    <varray name="basis" >
     <v>       0.00000000       3.10550802       3.10550802 </v>
     <v>       3.10550802       0.00000000       3.10550802 </v>
     <v>       3.10550802       3.10550802       0.00000000 </v>
    </varray>
    <i name="volume">     59.90015722 </i>
    <varray name="rec_basis" >
     <v>      -0.16100425       0.16100425       0.16100425 </v>
     <v>       0.16100425      -0.16100425       0.16100425 </v>
     <v>       0.16100425       0.16100425      -0.16100425 </v>
    </varray>
   </crystal>
   <varray name="positions" >
    <v>       0.00000000       0.00000000       0.00000000 </v>
    <v>       0.25000000       0.25000000       0.25000000 </v>
   </varray>
  </structure>
  <varray name="forces" >
   <v>      -0.00000000      -0.00000000      -0.00000000 </v>
   <v>       0.00000000       0.00000000       0.00000000 </v>
  </varray>
  <varray name="stress" >
   <v>       0.00602258       0.00000000      -0.00000000 </v>
   <v>       0.00000000       0.00602258       0.00000000 </v>
   <v>      -0.00000000       0.00000000       0.00602258 </v>
  </varray>
  <energy>
   <i name="e_fr_energy">     -7.69491199 </i>
   <i name="e_wo_entrp">     -7.69489693 </i>
   <i name="e_0_energy">     -0.00003013 </i>
  </energy>
  <time name="totalsc">    3.76    3.76</time>
  <eigenvalues>
   <array>
    <dimension dim="1">band</dimension>
    <dimension dim="2">kpoint</dimension>
    <dimension dim="3">spin</dimension>
    <field>eigene</field>
    <field>occ</field>
    <set>
     <set comment="spin 1">
      <set comment="kpoint 1">
       <r>   -8.7293    1.0000 </r>
       <r>    2.0694    1.0000 </r>
       <r>    2.6280    0.6667 </r>
       <r>    2.6280    0.6667 </r>
       <r>    2.6280    0.6667 </r>
       <r>    6.5239    0.0000 </r>
       <r>    6.5239    0.0000 </r>
       <r>    6.5239    0.0000 </r>
      </set>
      <set comment="kpoint 2">
       <r>   -8.6070    1.0000 </r>
       <r>    0.6894    1.0000 </r>
       <r>    2.4608    1.0000 </r>
       <r>    2.4608    1.0000 </r>
       <r>    3.5152    0.0000 </r>
       <r>    6.6160    0.0000 </r>
       <r>    6.7759    0.0000 </r>
       <r>    6.7759    0.0000 </r>
      </set>
      <set comment="kpoint 3">
       <r>   -8.2717    1.0000 </r>
       <r>   -0.9355    1.0000 </r>
       <r>    2.1269    1.0000 </r>
       <r>    2.1269    1.0000 </r>
       <r>    3.7057    0.0000 </r>
       <r>    7.1822    0.0000 </r>
       <r>    7.1822    0.0000 </r>
       <r>    7.5606    0.0000 </r>
      </set>
      <set comment="kpoint 4">
       <r>   -7.8512    1.0000 </r>
       <r>   -2.2113    1.0000 </r>
       <r>    1.8552    1.0000 </r>
       <r>    1.8552    1.0000 </r>
       <r>    3.5326    0.0000 </r>
       <r>    7.2948    0.0000 </r>
       <r>    7.2948    0.0000 </r>
       <r>    8.9109    0.0000 </r>
      </set>
      <set comment="kpoint 5">
       <r>   -7.6359    1.0000 </r>
       <r>   -2.7237    1.0000 </r>
       <r>    1.7552    1.0000 </r>
       <r>    1.7552    1.0000 </r>
       <r>    3.4473    0.0000 </r>
       <r>    7.2742    0.0000 </r>
       <r>    7.2742    0.0000 </r>
       <r>    9.3561    0.0000 </r>
      </set>
      <set comment="kpoint 6">
       <r>   -8.5659    1.0000 </r>
       <r>    0.5856    1.0000 </r>
       <r>    2.1673    1.0000 </r>
       <r>    2.1673    1.0000 </r>
       <r>    4.0890    0.0000 </r>
       <r>    5.8843    0.0000 </r>
       <r>    7.2046    0.0000 </r>
       <r>    7.2046    0.0000 </r>
      </set>
      <set comment="kpoint 7">
       <r>   -8.2993    1.0000 </r>
       <r>   -0.6114    1.0000 </r>
       <r>    1.7628    1.0000 </r>
       <r>    1.7919    1.0000 </r>
       <r>    4.5741    0.0000 </r>
       <r>    5.9328    0.0000 </r>
       <r>    7.7471    0.0000 </r>
       <r>    7.7741    0.0000 </r>
      </set>
      <set comment="kpoint 8">
       <r>   -7.8955    1.0000 </r>
       <r>   -1.8781    1.0000 </r>
       <r>    1.2846    1.0000 </r>
       <r>    1.5514    1.0000 </r>
       <r>    4.4889    0.0000 </r>
       <r>    6.6435    0.0000 </r>
       <r>    7.9371    0.0000 </r>
       <r>    8.1752    0.0000 </r>
      </set>
      <set comment="kpoint 9">
       <r>   -7.5850    1.0000 </r>
       <r>   -2.6240    1.0000 </r>
       <r>    0.9407    1.0000 </r>
       <r>    1.5309    1.0000 </r>
       <r>    4.3634    0.0000 </r>
       <r>    6.8986    0.0000 </r>
       <r>    7.7670    0.0000 </r>
       <r>    9.2198    0.0000 </r>
      </set>
      <set comment="kpoint 10">
       <r>   -7.6595    1.0000 </r>
       <r>   -2.4567    1.0000 </r>
       <r>    0.8459    1.0000 </r>
       <r>    1.7314    1.0000 </r>
       <r>    4.3695    0.0000 </r>
       <r>    7.0806    0.0000 </r>
       <r>    7.5688    0.0000 </r>
       <r>    9.0478    0.0000 </r>
      </set>
      <set comment="kpoint 11">
       <r>   -8.0384    1.0000 </r>
       <r>   -1.4886    1.0000 </r>
       <r>    1.0628    1.0000 </r>
       <r>    2.0826    1.0000 </r>
       <r>    4.4489    0.0000 </r>
       <r>    7.1297    0.0000 </r>
       <r>    7.3066    0.0000 </r>
       <r>    7.8886    0.0000 </r>
      </set>
      <set comment="kpoint 12">
       <r>   -8.4123    1.0000 </r>
       <r>   -0.2355    1.0000 </r>
       <r>    1.6643    1.0000 </r>
       <r>    2.4134    1.0000 </r>
       <r>    4.1964    0.0000 </r>
       <r>    6.5252    0.0000 </r>
       <r>    6.8933    0.0000 </r>
       <r>    7.5646    0.0000 </r>
      </set>
      <set comment="kpoint 13">
       <r>   -8.1123    1.0000 </r>
       <r>   -1.0077    1.0000 </r>
       <r>    1.3717    1.0000 </r>
       <r>    1.3717    1.0000 </r>
       <r>    4.9435    0.0000 </r>
       <r>    5.2140    0.0000 </r>
       <r>    8.6553    0.0000 </r>
       <r>    8.6553    0.0000 </r>
      </set>
      <set comment="kpoint 14">
       <r>   -7.7713    1.0000 </r>
       <r>   -1.8496    1.0000 </r>
       <r>    0.8200    1.0000 </r>
       <r>    1.1025    1.0000 </r>
       <r>    4.9121    0.0000 </r>
       <r>    5.5715    0.0000 </r>
       <r>    8.4469    0.0000 </r>
       <r>    9.1455    0.0000 </r>
      </set>
      <set comment="kpoint 15">
       <r>   -7.4475    1.0000 </r>
       <r>   -2.5099    1.0000 </r>
       <r>    0.1837    1.0000 </r>
       <r>    1.0793    1.0000 </r>
       <r>    4.8798    0.0000 </r>
       <r>    6.6689    0.0000 </r>
       <r>    8.3932    0.0000 </r>
       <r>    8.9933    0.0000 </r>
      </set>
      <set comment="kpoint 16">
       <r>   -7.4037    1.0000 </r>
       <r>   -2.5827    1.0000 </r>
       <r>   -0.1324    1.0000 </r>
       <r>    1.3070    1.0000 </r>
       <r>    4.9773    0.0000 </r>
       <r>    7.2816    0.0000 </r>
       <r>    8.5792    0.0000 </r>
       <r>    8.9385    0.0000 </r>
      </set>
      <set comment="kpoint 17">
       <r>   -7.6825    1.0000 </r>
       <r>   -2.0971    1.0000 </r>
       <r>    0.1132    1.0000 </r>
       <r>    1.7082    1.0000 </r>
       <r>    5.0493    0.0000 </r>
       <r>    7.5279    0.0000 </r>
       <r>    7.7605    0.0000 </r>
       <r>    7.9698    0.0000 </r>
      </set>
      <set comment="kpoint 18">
       <r>   -7.5235    1.0000 </r>
       <r>   -2.2991    1.0000 </r>
       <r>    0.7816    1.0000 </r>
       <r>    0.7816    1.0000 </r>
       <r>    4.4438    0.0000 </r>
       <r>    4.9831    0.0000 </r>
       <r>   10.2225    0.0000 </r>
       <r>   10.2992    0.0000 </r>
      </set>
      <set comment="kpoint 19">
       <r>   -7.2839    1.0000 </r>
       <r>   -2.6945    1.0000 </r>
       <r>    0.2758    1.0000 </r>
       <r>    0.7086    1.0000 </r>
       <r>    4.5830    0.0000 </r>
       <r>    5.3272    0.0000 </r>
       <r>    9.8958    0.0000 </r>
       <r>   10.4860    0.0000 </r>
      </set>
      <set comment="kpoint 20">
       <r>   -7.2313    1.0000 </r>
       <r>   -2.7293    1.0000 </r>
       <r>   -0.2750    1.0000 </r>
       <r>    0.9045    1.0000 </r>
       <r>    4.7706    0.0000 </r>
       <r>    6.7335    0.0000 </r>
       <r>    9.6155    0.0000 </r>
       <r>    9.7535    0.0000 </r>
      </set>
      <set comment="kpoint 21">
       <r>   -7.2059    1.0000 </r>
       <r>   -2.8559    1.0000 </r>
       <r>    0.5713    1.0000 </r>
       <r>    0.5713    1.0000 </r>
       <r>    4.3143    0.0000 </r>
       <r>    4.6889    0.0000 </r>
       <r>   11.3159    0.0000 </r>
       <r>   11.3586    0.0000 </r>
      </set>
      <set comment="kpoint 22">
       <r>   -7.9924    1.0000 </r>
       <r>   -1.4182    1.0000 </r>
       <r>    0.8604    1.0000 </r>
       <r>    1.6578    1.0000 </r>
       <r>    5.1661    0.0000 </r>
       <r>    5.9056    0.0000 </r>
       <r>    7.7398    0.0000 </r>
       <r>    8.4277    0.0000 </r>
      </set>
      <set comment="kpoint 23">
       <r>   -7.6162    1.0000 </r>
       <r>   -2.2564    1.0000 </r>
       <r>    0.3253    1.0000 </r>
       <r>    1.3310    1.0000 </r>
       <r>    5.2576    0.0000 </r>
       <r>    6.6028    0.0000 </r>
       <r>    7.7074    0.0000 </r>
       <r>    8.9304    0.0000 </r>
      </set>
      <set comment="kpoint 24">
       <r>   -7.4287    1.0000 </r>
       <r>   -2.6321    1.0000 </r>
       <r>    0.1694    1.0000 </r>
       <r>    1.1777    1.0000 </r>
       <r>    5.2231    0.0000 </r>
       <r>    6.7115    0.0000 </r>
       <r>    8.2196    0.0000 </r>
       <r>    9.3859    0.0000 </r>
      </set>
      <set comment="kpoint 25">
       <r>   -7.4659    1.0000 </r>
       <r>   -2.3827    1.0000 </r>
       <r>    0.3395    1.0000 </r>
       <r>    0.7680    1.0000 </r>
       <r>    5.3445    0.0000 </r>
       <r>    5.5588    0.0000 </r>
       <r>    8.3111    0.0000 </r>
       <r>   10.2537    0.0000 </r>
      </set>
      <set comment="kpoint 26">
       <r>   -7.2644    1.0000 </r>
       <r>   -2.6710    1.0000 </r>
       <r>   -0.1277    1.0000 </r>
       <r>    0.6348    1.0000 </r>
       <r>    5.5126    0.0000 </r>
       <r>    6.7229    0.0000 </r>
       <r>    8.0634    0.0000 </r>
       <r>    9.6839    0.0000 </r>
      </set>
      <set comment="kpoint 27">
       <r>   -7.3380    1.0000 </r>
       <r>   -2.5687    1.0000 </r>
       <r>   -0.2331    1.0000 </r>
       <r>    0.8984    1.0000 </r>
       <r>    5.6704    0.0000 </r>
       <r>    7.2232    0.0000 </r>
       <r>    7.5406    0.0000 </r>
       <r>    9.7785    0.0000 </r>
      </set>
      <set comment="kpoint 28">
       <r>   -7.1948    1.0000 </r>
       <r>   -2.7934    1.0000 </r>
       <r>    0.2648    1.0000 </r>
       <r>    0.3163    1.0000 </r>
       <r>    5.1677    0.0000 </r>
       <r>    5.4457    0.0000 </r>
       <r>    9.6382    0.0000 </r>
       <r>    9.9860    0.0000 </r>
      </set>
      <set comment="kpoint 29">
       <r>   -7.1835    1.0000 </r>
       <r>   -2.7243    1.0000 </r>
       <r>   -0.0063    1.0000 </r>
       <r>    0.1055    1.0000 </r>
       <r>    6.5236    0.0000 </r>
       <r>    6.8998    0.0000 </r>
       <r>    7.4319    0.0000 </r>
       <r>    8.6724    0.0000 </r>
      </set>
     </set>
    </set>
   </array>
  </eigenvalues>
  <separator name="orbital magnetization" >
   <v name="MAGDIPOLOUT">      0.00000000      0.00000000      0.00000000</v>
  </separator>
  <dos>
   <i name="efermi">      2.63102386 </i>
   <total>
    <array>
     <dimension dim="1">gridpoints</dimension>
     <dimension dim="2">spin</dimension>
     <field>energy</field>
     <field>total</field>
     <field>integrated</field>
     <set>
      <set comment="spin 1">
       <r>    -9.7337     0.0000     0.0000 </r>
       <r>    -7.5241     0.0474     1.1086 </r>
       <r>    -5.3144     0.0000     2.0000 </r>
       <r>    -3.1047     0.0000     2.0000 </r>
       <r>    -0.8950     0.0141     3.8008 </r>
       <r>     1.3146     0.0798     6.6802 </r>
       <r>     3.5243     0.0215     8.0514 </r>
       <r>     5.7340     0.0424    10.3633 </r>
       <r>     7.9437     0.0773    13.4052 </r>
       <r>    10.1533     0.0000    15.7422 </r>
       <r>    12.3630     0.0000    16.0000 </r>
      </set>
     </set>
    </array>
   </total>
   <partial>
    <array>
     <dimension dim="1">gridpoints</dimension>
     <dimension dim="2">spin</dimension>
     <dimension dim="3">ion</dimension>
     <field>energy</field>
     <field>  s  </field>
     <field>  p  </field>
     <field>  d  </field>
     <set>
      <set comment="ion 1">
       <set comment="spin 1">
        <r>    -9.7337     0.0000     0.0000     0.0000 </r>
        <r>    -7.5241     0.0040     0.0031     0.0006 </r>
        <r>    -5.3144     0.0000     0.0000     0.0000 </r>
        <r>    -3.1047     0.0000     0.0000     0.0000 </r>
        <r>    -0.8950     0.0046     0.0014     0.0004 </r>
        <r>     1.3146     0.0022     0.0198     0.0029 </r>
        <r>     3.5243     0.0052     0.0026     0.0005 </r>
        <r>     5.7340     0.0074     0.0055     0.0024 </r>
        <r>     7.9437     0.0011     0.0202     0.0064 </r>
        <r>    10.1533     0.0000     0.0000     0.0000 </r>
        <r>    12.3630     0.0000     0.0000     0.0000 </r>
       </set>
      </set>
      <set comment="ion 2">
       <set comment="spin 1">
        <r>    -9.7337     0.0000     0.0000     0.0000 </r>
        <r>    -7.5241     0.0267     0.0000     0.0000 </r>
        <r>    -5.3144     0.0000     0.0000     0.0000 </r>
        <r>    -3.1047     0.0000     0.0000     0.0000 </r>
        <r>    -0.8950     0.0015     0.0023     0.0000 </r>
        <r>     1.3146     0.0007     0.0252     0.0002 </r>
        <r>     3.5243     0.0026     0.0032     0.0002 </r>
        <r>     5.7340     0.0017     0.0075     0.0009 </r>
        <r>     7.9437     0.0005     0.0112     0.0031 </r>
        <r>    10.1533     0.0000     0.0000     0.0000 </r>
        <r>    12.3630     0.0000     0.0000     0.0000 </r>
       </set>
      </set>
     </set>
    </array>
   </partial>
  </dos>
  <projected>
   <eigenvalues>
    <array>
     <dimension dim="1">band</dimension>
     <dimension dim="2">kpoint</dimension>
     <dimension dim="3">spin</dimension>
     <field>eigene</field>
     <field>occ</field>
     <set>
      <set comment="spin 1">
       <set comment="kpoint 1">
        <r>   -8.7293    1.0000 </r>
        <r>    2.0694    1.0000 </r>
        <r>    2.6280    0.6667 </r>
        <r>    2.6280    0.6667 </r>
        <r>    2.6280    0.6667 </r>
        <r>    6.5239    0.0000 </r>
        <r>    6.5239    0.0000 </r>
        <r>    6.5239    0.0000 </r>
       </set>
       <set comment="kpoint 2">
        <r>   -8.6070    1.0000 </r>
        <r>    0.6894    1.0000 </r>
        <r>    2.4608    1.0000 </r>
        <r>    2.4608    1.0000 </r>
        <r>    3.5152    0.0000 </r>
        <r>    6.6160    0.0000 </r>
        <r>    6.7759    0.0000 </r>
        <r>    6.7759    0.0000 </r>
       </set>
       <set comment="kpoint 3">
        <r>   -8.2717    1.0000 </r>
        <r>   -0.9355    1.0000 </r>
        <r>    2.1269    1.0000 </r>
        <r>    2.1269    1.0000 </r>
        <r>    3.7057    0.0000 </r>
        <r>    7.1822    0.0000 </r>
        <r>    7.1822    0.0000 </r>
        <r>    7.5606    0.0000 </r>
       </set>
       <set comment="kpoint 4">
        <r>   -7.8512    1.0000 </r>
        <r>   -2.2113    1.0000 </r>
        <r>    1.8552    1.0000 </r>
        <r>    1.8552    1.0000 </r>
        <r>    3.5326    0.0000 </r>
        <r>    7.2948    0.0000 </r>
        <r>    7.2948    0.0000 </r>
        <r>    8.9109    0.0000 </r>
       </set>
       <set comment="kpoint 5">
        <r>   -7.6359    1.0000 </r>
        <r>   -2.7237    1.0000 </r>
        <r>    1.7552    1.0000 </r>
        <r>    1.7552    1.0000 </r>
        <r>    3.4473    0.0000 </r>
        <r>    7.2742    0.0000 </r>
        <r>    7.2742    0.0000 </r>
        <r>    9.3561    0.0000 </r>
       </set>
       <set comment="kpoint 6">
        <r>   -8.5659    1.0000 </r>
        <r>    0.5856    1.0000 </r>
        <r>    2.1673    1.0000 </r>
        <r>    2.1673    1.0000 </r>
        <r>    4.0890    0.0000 </r>
        <r>    5.8843    0.0000 </r>
        <r>    7.2046    0.0000 </r>
        <r>    7.2046    0.0000 </r>
       </set>
       <set comment="kpoint 7">
        <r>   -8.2993    1.0000 </r>
        <r>   -0.6114    1.0000 </r>
        <r>    1.7628    1.0000 </r>
        <r>    1.7919    1.0000 </r>
        <r>    4.5741    0.0000 </r>
        <r>    5.9328    0.0000 </r>
        <r>    7.7471    0.0000 </r>
        <r>    7.7741    0.0000 </r>
       </set>
       <set comment="kpoint 8">
        <r>   -7.8955    1.0000 </r>
        <r>   -1.8781    1.0000 </r>
        <r>    1.2846    1.0000 </r>
        <r>    1.5514    1.0000 </r>
        <r>    4.4889    0.0000 </r>
        <r>    6.6435    0.0000 </r>
        <r>    7.9371    0.0000 </r>
        <r>    8.1752    0.0000 </r>
       </set>
       <set comment="kpoint 9">
        <r>   -7.5850    1.0000 </r>
        <r>   -2.6240    1.0000 </r>
        <r>    0.9407    1.0000 </r>
        <r>    1.5309    1.0000 </r>
        <r>    4.3634    0.0000 </r>
        <r>    6.8986    0.0000 </r>
        <r>    7.7670    0.0000 </r>
        <r>    9.2198    0.0000 </r>
       </set>
       <set comment="kpoint 10">
        <r>   -7.6595    1.0000 </r>
        <r>   -2.4567    1.0000 </r>
        <r>    0.8459    1.0000 </r>
        <r>    1.7314    1.0000 </r>
        <r>    4.3695    0.0000 </r>
        <r>    7.0806    0.0000 </r>
        <r>    7.5688    0.0000 </r>
        <r>    9.0478    0.0000 </r>
       </set>
       <set comment="kpoint 11">
        <r>   -8.0384    1.0000 </r>
        <r>   -1.4886    1.0000 </r>
        <r>    1.0628    1.0000 </r>
        <r>    2.0826    1.0000 </r>
        <r>    4.4489    0.0000 </r>
        <r>    7.1297    0.0000 </r>
        <r>    7.3066    0.0000 </r>
        <r>    7.8886    0.0000 </r>
       </set>
       <set comment="kpoint 12">
        <r>   -8.4123    1.0000 </r>
        <r>   -0.2355    1.0000 </r>
        <r>    1.6643    1.0000 </r>
        <r>    2.4134    1.0000 </r>
        <r>    4.1964    0.0000 </r>
        <r>    6.5252    0.0000 </r>
        <r>    6.8933    0.0000 </r>
        <r>    7.5646    0.0000 </r>
       </set>
       <set comment="kpoint 13">
        <r>   -8.1123    1.0000 </r>
        <r>   -1.0077    1.0000 </r>
        <r>    1.3717    1.0000 </r>
        <r>    1.3717    1.0000 </r>
        <r>    4.9435    0.0000 </r>
        <r>    5.2140    0.0000 </r>
        <r>    8.6553    0.0000 </r>
        <r>    8.6553    0.0000 </r>
       </set>
       <set comment="kpoint 14">
        <r>   -7.7713    1.0000 </r>
        <r>   -1.8496    1.0000 </r>
        <r>    0.8200    1.0000 </r>
        <r>    1.1025    1.0000 </r>
        <r>    4.9121    0.0000 </r>
        <r>    5.5715    0.0000 </r>
        <r>    8.4469    0.0000 </r>
        <r>    9.1455    0.0000 </r>
       </set>
       <set comment="kpoint 15">
        <r>   -7.4475    1.0000 </r>
        <r>   -2.5099    1.0000 </r>
        <r>    0.1837    1.0000 </r>
        <r>    1.0793    1.0000 </r>
        <r>    4.8798    0.0000 </r>
        <r>    6.6689    0.0000 </r>
        <r>    8.3932    0.0000 </r>
        <r>    8.9933    0.0000 </r>
       </set>
       <set comment="kpoint 16">
        <r>   -7.4037    1.0000 </r>
        <r>   -2.5827    1.0000 </r>
        <r>   -0.1324    1.0000 </r>
        <r>    1.3070    1.0000 </r>
        <r>    4.9773    0.0000 </r>
        <r>    7.2816    0.0000 </r>
        <r>    8.5792    0.0000 </r>
        <r>    8.9385    0.0000 </r>
       </set>
       <set comment="kpoint 17">
        <r>   -7.6825    1.0000 </r>
        <r>   -2.0971    1.0000 </r>
        <r>    0.1132    1.0000 </r>
        <r>    1.7082    1.0000 </r>
        <r>    5.0493    0.0000 </r>
        <r>    7.5279    0.0000 </r>
        <r>    7.7605    0.0000 </r>
        <r>    7.9698    0.0000 </r>
       </set>
       <set comment="kpoint 18">
        <r>   -7.5235    1.0000 </r>
        <r>   -2.2991    1.0000 </r>
        <r>    0.7816    1.0000 </r>
        <r>    0.7816    1.0000 </r>
        <r>    4.4438    0.0000 </r>
        <r>    4.9831    0.0000 </r>
        <r>   10.2225    0.0000 </r>
        <r>   10.2992    0.0000 </r>
       </set>
       <set comment="kpoint 19">
        <r>   -7.2839    1.0000 </r>
        <r>   -2.6945    1.0000 </r>
        <r>    0.2758    1.0000 </r>
        <r>    0.7086    1.0000 </r>
        <r>    4.5830    0.0000 </r>
        <r>    5.3272    0.0000 </r>
        <r>    9.8958    0.0000 </r>
        <r>   10.4860    0.0000 </r>
       </set>
       <set comment="kpoint 20">
        <r>   -7.2313    1.0000 </r>
        <r>   -2.7293    1.0000 </r>
        <r>   -0.2750    1.0000 </r>
        <r>    0.9045    1.0000 </r>
        <r>    4.7706    0.0000 </r>
        <r>    6.7335    0.0000 </r>
        <r>    9.6155    0.0000 </r>
        <r>    9.7535    0.0000 </r>
       </set>
       <set comment="kpoint 21">
        <r>   -7.2059    1.0000 </r>
        <r>   -2.8559    1.0000 </r>
        <r>    0.5713    1.0000 </r>
        <r>    0.5713    1.0000 </r>
        <r>    4.3143    0.0000 </r>
        <r>    4.6889    0.0000 </r>
        <r>   11.3159    0.0000 </r>
        <r>   11.3586    0.0000 </r>
       </set>
       <set comment="kpoint 22">
        <r>   -7.9924    1.0000 </r>
        <r>   -1.4182    1.0000 </r>
        <r>    0.8604    1.0000 </r>
        <r>    1.6578    1.0000 </r>
        <r>    5.1661    0.0000 </r>
        <r>    5.9056    0.0000 </r>
        <r>    7.7398    0.0000 </r>
        <r>    8.4277    0.0000 </r>
       </set>
       <set comment="kpoint 23">
        <r>   -7.6162    1.0000 </r>
        <r>   -2.2564    1.0000 </r>
        <r>    0.3253    1.0000 </r>
        <r>    1.3310    1.0000 </r>
        <r>    5.2576    0.0000 </r>
        <r>    6.6028    0.0000 </r>
        <r>    7.7074    0.0000 </r>
        <r>    8.9304    0.0000 </r>
       </set>
       <set comment="kpoint 24">
        <r>   -7.4287    1.0000 </r>
        <r>   -2.6321    1.0000 </r>
        <r>    0.1694    1.0000 </r>
        <r>    1.1777    1.0000 </r>
        <r>    5.2231    0.0000 </r>
        <r>    6.7115    0.0000 </r>
        <r>    8.2196    0.0000 </r>
        <r>    9.3859    0.0000 </r>
       </set>
       <set comment="kpoint 25">
        <r>   -7.4659    1.0000 </r>
        <r>   -2.3827    1.0000 </r>
        <r>    0.3395    1.0000 </r>
        <r>    0.7680    1.0000 </r>
        <r>    5.3445    0.0000 </r>
        <r>    5.5588    0.0000 </r>
        <r>    8.3111    0.0000 </r>
        <r>   10.2537    0.0000 </r>
       </set>
       <set comment="kpoint 26">
        <r>   -7.2644    1.0000 </r>
        <r>   -2.6710    1.0000 </r>
        <r>   -0.1277    1.0000 </r>
        <r>    0.6348    1.0000 </r>
        <r>    5.5126    0.0000 </r>
        <r>    6.7229    0.0000 </r>
        <r>    8.0634    0.0000 </r>
        <r>    9.6839    0.0000 </r>
       </set>
       <set comment="kpoint 27">
        <r>   -7.3380    1.0000 </r>
        <r>   -2.5687    1.0000 </r>
        <r>   -0.2331    1.0000 </r>
        <r>    0.8984    1.0000 </r>
        <r>    5.6704    0.0000 </r>
        <r>    7.2232    0.0000 </r>
        <r>    7.5406    0.0000 </r>
        <r>    9.7785    0.0000 </r>
       </set>
       <set comment="kpoint 28">
        <r>   -7.1948    1.0000 </r>
        <r>   -2.7934    1.0000 </r>
        <r>    0.2648    1.0000 </r>
        <r>    0.3163    1.0000 </r>
        <r>    5.1677    0.0000 </r>
        <r>    5.4457    0.0000 </r>
        <r>    9.6382    0.0000 </r>
        <r>    9.9860    0.0000 </r>
       </set>
       <set comment="kpoint 29">
        <r>   -7.1835    1.0000 </r>
        <r>   -2.7243    1.0000 </r>
        <r>   -0.0063    1.0000 </r>
        <r>    0.1055    1.0000 </r>
        <r>    6.5236    0.0000 </r>
        <r>    6.8998    0.0000 </r>
        <r>    7.4319    0.0000 </r>
        <r>    8.6724    0.0000 </r>
       </set>
      </set>
     </set>
    </array>
   </eigenvalues>
   <array>
    <dimension dim="1">ion</dimension>
    <dimension dim="2">band</dimension>
    <dimension dim="3">kpoint</dimension>
    <dimension dim="4">spin</dimension>
    <field>  s  </field>
    <field>  p  </field>
    <field>  d  </field>
    <set>
     <set comment="spin1">
      <set comment="kpoint 1">
       <set comment="band 1">
        <r>  0.2444  0.0000  0.0000 </r>
        <r>  0.4601  0.0000  0.0000 </r>
       </set>
       <set comment="band 2">
        <r>  0.4767  0.0000  0.0000 </r>
        <r>  0.2958  0.0000  0.0000 </r>
       </set>
       <set comment="band 3">
        <r>  0.0000  0.1183  0.1016 </r>
        <r>  0.0000  0.4413  0.0019 </r>
       </set>
       <set comment="band 4">
        <r>  0.0000  0.1183  0.1016 </r>
        <r>  0.0000  0.4413  0.0019 </r>
       </set>
       <set comment="band 5">
        <r>  0.0000  0.1183  0.1016 </r>
        <r>  0.0000  0.4413  0.0019 </r>
       </set>
       <set comment="band 6">
        <r>  0.0000  0.5753  0.0117 </r>
        <r>  0.0000  0.0215  0.0520 </r>
       </set>
       <set comment="band 7">
        <r>  0.0000  0.5753  0.0117 </r>
        <r>  0.0000  0.0215  0.0520 </r>
       </set>
       <set comment="band 8">
        <r>  0.0000  0.5753  0.0117 </r>
        <r>  0.0000  0.0215  0.0520 </r>
       </set>
      </set>
      <set comment="kpoint 2">
       <set comment="band 1">
        <r>  0.2309  0.0068  0.0010 </r>
        <r>  0.4671  0.0006  0.0000 </r>
       </set>
       <set comment="band 2">
        <r>  0.2990  0.0705  0.0393 </r>
        <r>  0.1522  0.1657  0.0020 </r>
       </set>
       <set comment="band 3">
        <r>  0.0000  0.1487  0.0892 </r>
        <r>  0.0000  0.4219  0.0024 </r>
       </set>
       <set comment="band 4">
        <r>  0.0000  0.1487  0.0892 </r>
        <r>  0.0000  0.4219  0.0024 </r>
       </set>
       <set comment="band 5">
        <r>  0.2053  0.1170  0.0295 </r>
        <r>  0.1255  0.2092  0.0031 </r>
       </set>
       <set comment="band 6">
        <r>  0.0418  0.3794  0.0384 </r>
        <r>  0.0107  0.0897  0.0407 </r>
       </set>
       <set comment="band 7">
        <r>  0.0000  0.5456  0.0231 </r>
        <r>  0.0000  0.0407  0.0511 </r>
       </set>
       <set comment="band 8">
        <r>  0.0000  0.5456  0.0231 </r>
        <r>  0.0000  0.0407  0.0511 </r>
       </set>
      </set>
      <set comment="kpoint 3">
       <set comment="band 1">
        <r>  0.1910  0.0252  0.0042 </r>
        <r>  0.4904  0.0018  0.0001 </r>
       </set>
       <set comment="band 2">
        <r>  0.3222  0.0988  0.0253 </r>
        <r>  0.1038  0.1601  0.0023 </r>
       </set>
       <set comment="band 3">
        <r>  0.0000  0.1986  0.0674 </r>
        <r>  0.0000  0.3927  0.0026 </r>
       </set>
       <set comment="band 4">
        <r>  0.0000  0.1986  0.0674 </r>
        <r>  0.0000  0.3927  0.0026 </r>
       </set>
       <set comment="band 5">
        <r>  0.2554  0.1585  0.0087 </r>
        <r>  0.1218  0.0984  0.0104 </r>
       </set>
       <set comment="band 6">
        <r>  0.0000  0.4716  0.0542 </r>
        <r>  0.0000  0.0614  0.0502 </r>
       </set>
       <set comment="band 7">
        <r>  0.0000  0.4716  0.0542 </r>
        <r>  0.0000  0.0614  0.0502 </r>
       </set>
       <set comment="band 8">
        <r>  0.0591  0.1753  0.0574 </r>
        <r>  0.0298  0.2170  0.0235 </r>
       </set>
      </set>
      <set comment="kpoint 4">
       <set comment="band 1">
        <r>  0.1318  0.0478  0.0096 </r>
        <r>  0.5312  0.0017  0.0002 </r>
       </set>
       <set comment="band 2">
        <r>  0.3794  0.1041  0.0081 </r>
        <r>  0.0529  0.1493  0.0020 </r>
       </set>
       <set comment="band 3">
        <r>  0.0000  0.2322  0.0515 </r>
        <r>  0.0000  0.3756  0.0023 </r>
       </set>
       <set comment="band 4">
        <r>  0.0000  0.2322  0.0515 </r>
        <r>  0.0000  0.3756  0.0023 </r>
       </set>
       <set comment="band 5">
        <r>  0.2868  0.1339  0.0161 </r>
        <r>  0.1187  0.0615  0.0136 </r>
       </set>
       <set comment="band 6">
        <r>  0.0000  0.3821  0.0946 </r>
        <r>  0.0000  0.0587  0.0512 </r>
       </set>
       <set comment="band 7">
        <r>  0.0000  0.3821  0.0946 </r>
        <r>  0.0000  0.0587  0.0512 </r>
       </set>
       <set comment="band 8">
        <r>  0.0222  0.1047  0.0687 </r>
        <r>  0.0159  0.2754  0.0088 </r>
       </set>
      </set>
      <set comment="kpoint 5">
       <set comment="band 1">
        <r>  0.0953  0.0596  0.0132 </r>
        <r>  0.5593  0.0005  0.0003 </r>
       </set>
       <set comment="band 2">
        <r>  0.4159  0.1013  0.0001 </r>
        <r>  0.0219  0.1462  0.0018 </r>
       </set>
       <set comment="band 3">
        <r>  0.0000  0.2434  0.0459 </r>
        <r>  0.0000  0.3704  0.0020 </r>
       </set>
       <set comment="band 4">
        <r>  0.0000  0.2434  0.0459 </r>
        <r>  0.0000  0.3704  0.0020 </r>
       </set>
       <set comment="band 5">
        <r>  0.2977  0.1195  0.0205 </r>
        <r>  0.1188  0.0541  0.0143 </r>
       </set>
       <set comment="band 6">
        <r>  0.0000  0.3477  0.1102 </r>
        <r>  0.0000  0.0548  0.0519 </r>
       </set>
       <set comment="band 7">
        <r>  0.0000  0.3477  0.1102 </r>
        <r>  0.0000  0.0548  0.0519 </r>
       </set>
       <set comment="band 8">
        <r>  0.0000  0.0658  0.0909 </r>
        <r>  0.0003  0.2089  0.0006 </r>
       </set>
      </set>
      <set comment="kpoint 6">
       <set comment="band 1">
        <r>  0.2262  0.0092  0.0013 </r>
        <r>  0.4695  0.0009  0.0000 </r>
       </set>
       <set comment="band 2">
        <r>  0.3353  0.0471  0.0407 </r>
        <r>  0.1653  0.1542  0.0020 </r>
       </set>
       <set comment="band 3">
        <r>  0.0000  0.1862  0.0742 </r>
        <r>  0.0000  0.3890  0.0030 </r>
       </set>
       <set comment="band 4">
        <r>  0.0000  0.1862  0.0742 </r>
        <r>  0.0000  0.3890  0.0030 </r>
       </set>
       <set comment="band 5">
        <r>  0.1799  0.0647  0.0482 </r>
        <r>  0.1074  0.2926  0.0003 </r>
       </set>
       <set comment="band 6">
        <r>  0.0443  0.4532  0.0169 </r>
        <r>  0.0110  0.0130  0.0421 </r>
       </set>
       <set comment="band 7">
        <r>  0.0000  0.5004  0.0376 </r>
        <r>  0.0000  0.0779  0.0511 </r>
       </set>
       <set comment="band 8">
        <r>  0.0000  0.5004  0.0376 </r>
        <r>  0.0000  0.0779  0.0511 </r>
       </set>
      </set>
      <set comment="kpoint 7">
       <set comment="band 1">
        <r>  0.1943  0.0242  0.0038 </r>
        <r>  0.4877  0.0019  0.0001 </r>
       </set>
       <set comment="band 2">
        <r>  0.3499  0.0707  0.0316 </r>
        <r>  0.1246  0.1563  0.0025 </r>
       </set>
       <set comment="band 3">
        <r>  0.0259  0.2137  0.0541 </r>
        <r>  0.0088  0.3386  0.0036 </r>
       </set>
       <set comment="band 4">
        <r>  0.0000  0.2280  0.0551 </r>
        <r>  0.0000  0.3613  0.0029 </r>
       </set>
       <set comment="band 5">
        <r>  0.2009  0.1044  0.0316 </r>
        <r>  0.0934  0.2347  0.0058 </r>
       </set>
       <set comment="band 6">
        <r>  0.0474  0.3739  0.0348 </r>
        <r>  0.0237  0.0541  0.0352 </r>
       </set>
       <set comment="band 7">
        <r>  0.0081  0.3429  0.0681 </r>
        <r>  0.0041  0.1210  0.0448 </r>
       </set>
       <set comment="band 8">
        <r>  0.0000  0.4417  0.0611 </r>
        <r>  0.0000  0.1041  0.0508 </r>
       </set>
      </set>
      <set comment="kpoint 8">
       <set comment="band 1">
        <r>  0.1385  0.0465  0.0087 </r>
        <r>  0.5244  0.0022  0.0001 </r>
       </set>
       <set comment="band 2">
        <r>  0.3939  0.0867  0.0141 </r>
        <r>  0.0717  0.1487  0.0024 </r>
       </set>
       <set comment="band 3">
        <r>  0.0525  0.2261  0.0396 </r>
        <r>  0.0162  0.2965  0.0037 </r>
       </set>
       <set comment="band 4">
        <r>  0.0000  0.2531  0.0424 </r>
        <r>  0.0000  0.3500  0.0024 </r>
       </set>
       <set comment="band 5">
        <r>  0.2082  0.1352  0.0316 </r>
        <r>  0.0830  0.1719  0.0121 </r>
       </set>
       <set comment="band 6">
        <r>  0.0328  0.3367  0.0628 </r>
        <r>  0.0169  0.0792  0.0364 </r>
       </set>
       <set comment="band 7">
        <r>  0.0000  0.3671  0.0972 </r>
        <r>  0.0000  0.0954  0.0519 </r>
       </set>
       <set comment="band 8">
        <r>  0.0183  0.1606  0.1018 </r>
        <r>  0.0146  0.1574  0.0345 </r>
       </set>
      </set>
      <set comment="kpoint 9">
       <set comment="band 1">
        <r>  0.0862  0.0637  0.0137 </r>
        <r>  0.5636  0.0009  0.0002 </r>
       </set>
       <set comment="band 2">
        <r>  0.4427  0.0871  0.0018 </r>
        <r>  0.0259  0.1445  0.0023 </r>
       </set>
       <set comment="band 3">
        <r>  0.0611  0.2343  0.0320 </r>
        <r>  0.0184  0.2781  0.0033 </r>
       </set>
       <set comment="band 4">
        <r>  0.0000  0.2591  0.0390 </r>
        <r>  0.0000  0.3524  0.0021 </r>
       </set>
       <set comment="band 5">
        <r>  0.2199  0.1376  0.0321 </r>
        <r>  0.0843  0.1485  0.0137 </r>
       </set>
       <set comment="band 6">
        <r>  0.0140  0.2659  0.0994 </r>
        <r>  0.0062  0.0703  0.0411 </r>
       </set>
       <set comment="band 7">
        <r>  0.0000  0.3322  0.1140 </r>
        <r>  0.0000  0.0781  0.0523 </r>
       </set>
       <set comment="band 8">
        <r>  0.0200  0.1550  0.0882 </r>
        <r>  0.0109  0.2416  0.0185 </r>
       </set>
      </set>
      <set comment="kpoint 10">
       <set comment="band 1">
        <r>  0.0999  0.0593  0.0124 </r>
        <r>  0.5532  0.0013  0.0002 </r>
       </set>
       <set comment="band 2">
        <r>  0.4296  0.0884  0.0045 </r>
        <r>  0.0376  0.1452  0.0023 </r>
       </set>
       <set comment="band 3">
        <r>  0.0544  0.2418  0.0301 </r>
        <r>  0.0155  0.2761  0.0032 </r>
       </set>
       <set comment="band 4">
        <r>  0.0000  0.2445  0.0460 </r>
        <r>  0.0000  0.3669  0.0022 </r>
       </set>
       <set comment="band 5">
        <r>  0.2254  0.1455  0.0272 </r>
        <r>  0.0882  0.1431  0.0133 </r>
       </set>
       <set comment="band 6">
        <r>  0.0095  0.2547  0.1057 </r>
        <r>  0.0053  0.0750  0.0419 </r>
       </set>
       <set comment="band 7">
        <r>  0.0000  0.3666  0.0982 </r>
        <r>  0.0000  0.0682  0.0508 </r>
       </set>
       <set comment="band 8">
        <r>  0.0305  0.1379  0.0730 </r>
        <r>  0.0163  0.2688  0.0160 </r>
       </set>
      </set>
      <set comment="kpoint 11">
       <set comment="band 1">
        <r>  0.1597  0.0382  0.0069 </r>
        <r>  0.5101  0.0022  0.0001 </r>
       </set>
       <set comment="band 2">
        <r>  0.3746  0.0859  0.0194 </r>
        <r>  0.0900  0.1513  0.0025 </r>
       </set>
       <set comment="band 3">
        <r>  0.0349  0.2457  0.0351 </r>
        <r>  0.0078  0.2912  0.0036 </r>
       </set>
       <set comment="band 4">
        <r>  0.0000  0.2086  0.0626 </r>
        <r>  0.0000  0.3925  0.0024 </r>
       </set>
       <set comment="band 5">
        <r>  0.2219  0.1579  0.0174 </r>
        <r>  0.0972  0.1591  0.0104 </r>
       </set>
       <set comment="band 6">
        <r>  0.0305  0.2890  0.0855 </r>
        <r>  0.0188  0.1060  0.0374 </r>
       </set>
       <set comment="band 7">
        <r>  0.0000  0.4647  0.0566 </r>
        <r>  0.0000  0.0585  0.0490 </r>
       </set>
       <set comment="band 8">
        <r>  0.0261  0.1746  0.0698 </r>
        <r>  0.0129  0.1864  0.0314 </r>
       </set>
      </set>
      <set comment="kpoint 12">
       <set comment="band 1">
        <r>  0.2083  0.0176  0.0028 </r>
        <r>  0.4797  0.0015  0.0000 </r>
       </set>
       <set comment="band 2">
        <r>  0.3290  0.0738  0.0344 </r>
        <r>  0.1339  0.1602  0.0023 </r>
       </set>
       <set comment="band 3">
        <r>  0.0123  0.2255  0.0532 </r>
        <r>  0.0007  0.3359  0.0039 </r>
       </set>
       <set comment="band 4">
        <r>  0.0000  0.1619  0.0829 </r>
        <r>  0.0000  0.4214  0.0023 </r>
       </set>
       <set comment="band 5">
        <r>  0.2099  0.1367  0.0187 </r>
        <r>  0.1157  0.2032  0.0045 </r>
       </set>
       <set comment="band 6">
        <r>  0.0531  0.3061  0.0572 </r>
        <r>  0.0173  0.1003  0.0366 </r>
       </set>
       <set comment="band 7">
        <r>  0.0000  0.5407  0.0269 </r>
        <r>  0.0000  0.0378  0.0499 </r>
       </set>
       <set comment="band 8">
        <r>  0.0043  0.3825  0.0524 </r>
        <r>  0.0026  0.1243  0.0453 </r>
       </set>
      </set>
      <set comment="kpoint 13">
       <set comment="band 1">
        <r>  0.1691  0.0357  0.0057 </r>
        <r>  0.5019  0.0025  0.0001 </r>
       </set>
       <set comment="band 2">
        <r>  0.4127  0.0410  0.0313 </r>
        <r>  0.1215  0.1469  0.0029 </r>
       </set>
       <set comment="band 3">
        <r>  0.0000  0.2609  0.0390 </r>
        <r>  0.0000  0.3347  0.0025 </r>
       </set>
       <set comment="band 4">
        <r>  0.0000  0.2609  0.0390 </r>
        <r>  0.0000  0.3347  0.0025 </r>
       </set>
       <set comment="band 5">
        <r>  0.1737  0.1749  0.0559 </r>
        <r>  0.0011  0.0934  0.0311 </r>
       </set>
       <set comment="band 6">
        <r>  0.0802  0.2234  0.0259 </r>
        <r>  0.0957  0.1675  0.0093 </r>
       </set>
       <set comment="band 7">
        <r>  0.0000  0.4091  0.0703 </r>
        <r>  0.0000  0.1435  0.0504 </r>
       </set>
       <set comment="band 8">
        <r>  0.0000  0.4091  0.0703 </r>
        <r>  0.0000  0.1435  0.0504 </r>
       </set>
      </set>
      <set comment="kpoint 14">
       <set comment="band 1">
        <r>  0.1175  0.0562  0.0099 </r>
        <r>  0.5351  0.0026  0.0001 </r>
       </set>
       <set comment="band 2">
        <r>  0.4677  0.0412  0.0192 </r>
        <r>  0.0806  0.1421  0.0031 </r>
       </set>
       <set comment="band 3">
        <r>  0.0179  0.2721  0.0262 </r>
        <r>  0.0033  0.2918  0.0026 </r>
       </set>
       <set comment="band 4">
        <r>  0.0000  0.2811  0.0281 </r>
        <r>  0.0000  0.3231  0.0019 </r>
       </set>
       <set comment="band 5">
        <r>  0.1228  0.1880  0.0611 </r>
        <r>  0.0320  0.0936  0.0255 </r>
       </set>
       <set comment="band 6">
        <r>  0.1218  0.1633  0.0505 </r>
        <r>  0.0479  0.1611  0.0185 </r>
       </set>
       <set comment="band 7">
        <r>  0.0085  0.2127  0.1234 </r>
        <r>  0.0218  0.1026  0.0428 </r>
       </set>
       <set comment="band 8">
        <r>  0.0000  0.3561  0.0959 </r>
        <r>  0.0000  0.1468  0.0508 </r>
       </set>
      </set>
      <set comment="kpoint 15">
       <set comment="band 1">
        <r>  0.0588  0.0755  0.0153 </r>
        <r>  0.5780  0.0013  0.0001 </r>
       </set>
       <set comment="band 2">
        <r>  0.5274  0.0414  0.0058 </r>
        <r>  0.0307  0.1389  0.0034 </r>
       </set>
       <set comment="band 3">
        <r>  0.0323  0.2696  0.0195 </r>
        <r>  0.0070  0.2548  0.0022 </r>
       </set>
       <set comment="band 4">
        <r>  0.0000  0.2858  0.0255 </r>
        <r>  0.0000  0.3245  0.0017 </r>
       </set>
       <set comment="band 5">
        <r>  0.1404  0.1607  0.0632 </r>
        <r>  0.0457  0.1022  0.0225 </r>
       </set>
       <set comment="band 6">
        <r>  0.1081  0.1331  0.0571 </r>
        <r>  0.0209  0.2155  0.0228 </r>
       </set>
       <set comment="band 7">
        <r>  0.0013  0.2323  0.1309 </r>
        <r>  0.0325  0.0713  0.0391 </r>
       </set>
       <set comment="band 8">
        <r>  0.0000  0.3112  0.1152 </r>
        <r>  0.0000  0.1253  0.0524 </r>
       </set>
      </set>
      <set comment="kpoint 16">
       <set comment="band 1">
        <r>  0.0508  0.0770  0.0164 </r>
        <r>  0.5856  0.0009  0.0001 </r>
       </set>
       <set comment="band 2">
        <r>  0.5379  0.0444  0.0027 </r>
        <r>  0.0218  0.1380  0.0036 </r>
       </set>
       <set comment="band 3">
        <r>  0.0291  0.2720  0.0167 </r>
        <r>  0.0060  0.2432  0.0017 </r>
       </set>
       <set comment="band 4">
        <r>  0.0000  0.2741  0.0318 </r>
        <r>  0.0000  0.3380  0.0020 </r>
       </set>
       <set comment="band 5">
        <r>  0.1654  0.1643  0.0532 </r>
        <r>  0.0536  0.1106  0.0210 </r>
       </set>
       <set comment="band 6">
        <r>  0.0713  0.1060  0.0646 </r>
        <r>  0.0109  0.2193  0.0272 </r>
       </set>
       <set comment="band 7">
        <r>  0.0000  0.3361  0.0981 </r>
        <r>  0.0000  0.1127  0.0499 </r>
       </set>
       <set comment="band 8">
        <r>  0.0305  0.2080  0.1121 </r>
        <r>  0.0371  0.1899  0.0207 </r>
       </set>
      </set>
      <set comment="kpoint 17">
       <set comment="band 1">
        <r>  0.1042  0.0591  0.0117 </r>
        <r>  0.5474  0.0021  0.0001 </r>
       </set>
       <set comment="band 2">
        <r>  0.4719  0.0581  0.0111 </r>
        <r>  0.0619  0.1409  0.0033 </r>
       </set>
       <set comment="band 3">
        <r>  0.0262  0.2723  0.0192 </r>
        <r>  0.0022  0.2521  0.0024 </r>
       </set>
       <set comment="band 4">
        <r>  0.0000  0.2455  0.0460 </r>
        <r>  0.0000  0.3635  0.0024 </r>
       </set>
       <set comment="band 5">
        <r>  0.2007  0.1736  0.0292 </r>
        <r>  0.0706  0.1444  0.0160 </r>
       </set>
       <set comment="band 6">
        <r>  0.0338  0.1064  0.0723 </r>
        <r>  0.0045  0.1921  0.0296 </r>
       </set>
       <set comment="band 7">
        <r>  0.0364  0.2236  0.1054 </r>
        <r>  0.0413  0.1437  0.0289 </r>
       </set>
       <set comment="band 8">
        <r>  0.0000  0.4134  0.0681 </r>
        <r>  0.0000  0.0920  0.0476 </r>
       </set>
      </set>
      <set comment="kpoint 18">
       <set comment="band 1">
        <r>  0.0716  0.0742  0.0132 </r>
        <r>  0.5643  0.0022  0.0001 </r>
       </set>
       <set comment="band 2">
        <r>  0.5316  0.0186  0.0149 </r>
        <r>  0.0525  0.1385  0.0033 </r>
       </set>
       <set comment="band 3">
        <r>  0.0000  0.2993  0.0177 </r>
        <r>  0.0000  0.3091  0.0012 </r>
       </set>
       <set comment="band 4">
        <r>  0.0000  0.2993  0.0177 </r>
        <r>  0.0000  0.3091  0.0012 </r>
       </set>
       <set comment="band 5">
        <r>  0.0675  0.2504  0.0640 </r>
        <r>  0.0361  0.0191  0.0278 </r>
       </set>
       <set comment="band 6">
        <r>  0.1678  0.0568  0.0812 </r>
        <r>  0.0296  0.1421  0.0225 </r>
       </set>
       <set comment="band 7">
        <r>  0.0500  0.0207  0.1181 </r>
        <r>  0.0386  0.2289  0.0239 </r>
       </set>
       <set comment="band 8">
        <r>  0.0000  0.3645  0.0899 </r>
        <r>  0.0000  0.1940  0.0424 </r>
       </set>
      </set>
      <set comment="kpoint 19">
       <set comment="band 1">
        <r>  0.0207  0.0909  0.0175 </r>
        <r>  0.6008  0.0007  0.0001 </r>
       </set>
       <set comment="band 2">
        <r>  0.5936  0.0072  0.0067 </r>
        <r>  0.0146  0.1367  0.0036 </r>
       </set>
       <set comment="band 3">
        <r>  0.0046  0.3002  0.0129 </r>
        <r>  0.0005  0.2741  0.0013 </r>
       </set>
       <set comment="band 4">
        <r>  0.0000  0.3045  0.0147 </r>
        <r>  0.0000  0.3072  0.0010 </r>
       </set>
       <set comment="band 5">
        <r>  0.0724  0.2003  0.0784 </r>
        <r>  0.0422  0.0445  0.0250 </r>
       </set>
       <set comment="band 6">
        <r>  0.1526  0.0846  0.0802 </r>
        <r>  0.0167  0.1464  0.0265 </r>
       </set>
       <set comment="band 7">
        <r>  0.0303  0.2155  0.0859 </r>
        <r>  0.0256  0.1853  0.0312 </r>
       </set>
       <set comment="band 8">
        <r>  0.0000  0.3263  0.0993 </r>
        <r>  0.0000  0.1879  0.0424 </r>
       </set>
      </set>
      <set comment="kpoint 20">
       <set comment="band 1">
        <r>  0.0106  0.0919  0.0191 </r>
        <r>  0.6110  0.0002  0.0001 </r>
       </set>
       <set comment="band 2">
        <r>  0.6164  0.0084  0.0024 </r>
        <r>  0.0042  0.1348  0.0042 </r>
       </set>
       <set comment="band 3">
        <r>  0.0000  0.2959  0.0118 </r>
        <r>  0.0001  0.2459  0.0010 </r>
       </set>
       <set comment="band 4">
        <r>  0.0000  0.2961  0.0198 </r>
        <r>  0.0000  0.3166  0.0013 </r>
       </set>
       <set comment="band 5">
        <r>  0.1164  0.1629  0.0761 </r>
        <r>  0.0396  0.0691  0.0249 </r>
       </set>
       <set comment="band 6">
        <r>  0.1186  0.0839  0.0696 </r>
        <r>  0.0097  0.2282  0.0258 </r>
       </set>
       <set comment="band 7">
        <r>  0.0096  0.3642  0.0715 </r>
        <r>  0.0517  0.0884  0.0198 </r>
       </set>
       <set comment="band 8">
        <r>  0.0000  0.3158  0.0909 </r>
        <r>  0.0000  0.1606  0.0464 </r>
       </set>
      </set>
      <set comment="kpoint 21">
       <set comment="band 1">
        <r>  0.0000  0.0988  0.0187 </r>
        <r>  0.6141  0.0000  0.0001 </r>
       </set>
       <set comment="band 2">
        <r>  0.6113  0.0000  0.0055 </r>
        <r>  0.0000  0.1373  0.0035 </r>
       </set>
       <set comment="band 3">
        <r>  0.0000  0.3108  0.0107 </r>
        <r>  0.0000  0.3017  0.0006 </r>
       </set>
       <set comment="band 4">
        <r>  0.0000  0.3108  0.0107 </r>
        <r>  0.0000  0.3017  0.0006 </r>
       </set>
       <set comment="band 5">
        <r>  0.0000  0.2766  0.0760 </r>
        <r>  0.0610  0.0000  0.0229 </r>
       </set>
       <set comment="band 6">
        <r>  0.2291  0.0000  0.0900 </r>
        <r>  0.0000  0.1328  0.0299 </r>
       </set>
       <set comment="band 7">
        <r>  0.0681  0.0000  0.0386 </r>
        <r>  0.0000  0.3612  0.0138 </r>
       </set>
       <set comment="band 8">
        <r>  0.0000  0.3845  0.0817 </r>
        <r>  0.0000  0.2498  0.0180 </r>
       </set>
      </set>
      <set comment="kpoint 22">
       <set comment="band 1">
        <r>  0.1527  0.0418  0.0073 </r>
        <r>  0.5134  0.0025  0.0001 </r>
       </set>
       <set comment="band 2">
        <r>  0.4123  0.0605  0.0229 </r>
        <r>  0.0998  0.1471  0.0028 </r>
       </set>
       <set comment="band 3">
        <r>  0.0198  0.2649  0.0295 </r>
        <r>  0.0014  0.2886  0.0032 </r>
       </set>
       <set comment="band 4">
        <r>  0.0082  0.2379  0.0476 </r>
        <r>  0.0031  0.3493  0.0028 </r>
       </set>
       <set comment="band 5">
        <r>  0.2222  0.0896  0.0291 </r>
        <r>  0.0732  0.2449  0.0083 </r>
       </set>
       <set comment="band 6">
        <r>  0.0286  0.3418  0.0540 </r>
        <r>  0.0329  0.0540  0.0320 </r>
       </set>
       <set comment="band 7">
        <r>  0.0021  0.2221  0.1027 </r>
        <r>  0.0017  0.0924  0.0461 </r>
       </set>
       <set comment="band 8">
        <r>  0.0043  0.3929  0.0805 </r>
        <r>  0.0058  0.1306  0.0459 </r>
       </set>
      </set>
      <set comment="kpoint 23">
       <set comment="band 1">
        <r>  0.0920  0.0636  0.0127 </r>
        <r>  0.5556  0.0019  0.0001 </r>
       </set>
       <set comment="band 2">
        <r>  0.4783  0.0581  0.0090 </r>
        <r>  0.0509  0.1413  0.0031 </r>
       </set>
       <set comment="band 3">
        <r>  0.0376  0.2638  0.0217 </r>
        <r>  0.0074  0.2590  0.0025 </r>
       </set>
       <set comment="band 4">
        <r>  0.0046  0.2637  0.0358 </r>
        <r>  0.0013  0.3302  0.0025 </r>
       </set>
       <set comment="band 5">
        <r>  0.2024  0.1290  0.0361 </r>
        <r>  0.0626  0.1968  0.0144 </r>
       </set>
       <set comment="band 6">
        <r>  0.0247  0.2605  0.0856 </r>
        <r>  0.0240  0.0920  0.0316 </r>
       </set>
       <set comment="band 7">
        <r>  0.0231  0.1931  0.0851 </r>
        <r>  0.0075  0.1279  0.0400 </r>
       </set>
       <set comment="band 8">
        <r>  0.0027  0.3088  0.1267 </r>
        <r>  0.0122  0.1268  0.0453 </r>
       </set>
      </set>
      <set comment="kpoint 24">
       <set comment="band 1">
        <r>  0.0558  0.0750  0.0160 </r>
        <r>  0.5828  0.0008  0.0001 </r>
       </set>
       <set comment="band 2">
        <r>  0.5132  0.0567  0.0017 </r>
        <r>  0.0195  0.1400  0.0032 </r>
       </set>
       <set comment="band 3">
        <r>  0.0492  0.2564  0.0209 </r>
        <r>  0.0120  0.2499  0.0023 </r>
       </set>
       <set comment="band 4">
        <r>  0.0012  0.2756  0.0306 </r>
        <r>  0.0001  0.3232  0.0023 </r>
       </set>
       <set comment="band 5">
        <r>  0.2006  0.1342  0.0394 </r>
        <r>  0.0621  0.1846  0.0157 </r>
       </set>
       <set comment="band 6">
        <r>  0.0053  0.2108  0.1073 </r>
        <r>  0.0122  0.0773  0.0362 </r>
       </set>
       <set comment="band 7">
        <r>  0.0393  0.2374  0.0628 </r>
        <r>  0.0023  0.1877  0.0391 </r>
       </set>
       <set comment="band 8">
        <r>  0.0116  0.2567  0.1390 </r>
        <r>  0.0220  0.1672  0.0316 </r>
       </set>
      </set>
      <set comment="kpoint 25">
       <set comment="band 1">
        <r>  0.0617  0.0761  0.0146 </r>
        <r>  0.5733  0.0018  0.0001 </r>
       </set>
       <set comment="band 2">
        <r>  0.5444  0.0236  0.0104 </r>
        <r>  0.0427  0.1374  0.0036 </r>
       </set>
       <set comment="band 3">
        <r>  0.0135  0.2875  0.0169 </r>
        <r>  0.0014  0.2724  0.0018 </r>
       </set>
       <set comment="band 4">
        <r>  0.0018  0.2909  0.0216 </r>
        <r>  0.0003  0.2981  0.0020 </r>
       </set>
       <set comment="band 5">
        <r>  0.0543  0.2302  0.0799 </r>
        <r>  0.0294  0.0761  0.0275 </r>
       </set>
       <set comment="band 6">
        <r>  0.1778  0.0760  0.0590 </r>
        <r>  0.0353  0.1906  0.0198 </r>
       </set>
       <set comment="band 7">
        <r>  0.0106  0.2322  0.1068 </r>
        <r>  0.0246  0.1041  0.0404 </r>
       </set>
       <set comment="band 8">
        <r>  0.0034  0.3889  0.0890 </r>
        <r>  0.0044  0.1795  0.0410 </r>
       </set>
      </set>
      <set comment="kpoint 26">
       <set comment="band 1">
        <r>  0.0191  0.0889  0.0185 </r>
        <r>  0.6053  0.0004  0.0001 </r>
       </set>
       <set comment="band 2">
        <r>  0.6045  0.0135  0.0028 </r>
        <r>  0.0101  0.1350  0.0042 </r>
       </set>
       <set comment="band 3">
        <r>  0.0090  0.2869  0.0146 </r>
        <r>  0.0017  0.2504  0.0013 </r>
       </set>
       <set comment="band 4">
        <r>  0.0018  0.2950  0.0190 </r>
        <r>  0.0002  0.2897  0.0020 </r>
       </set>
       <set comment="band 5">
        <r>  0.1268  0.1437  0.0731 </r>
        <r>  0.0336  0.1368  0.0236 </r>
       </set>
       <set comment="band 6">
        <r>  0.1114  0.0963  0.0712 </r>
        <r>  0.0153  0.2255  0.0237 </r>
       </set>
       <set comment="band 7">
        <r>  0.0023  0.2769  0.1020 </r>
        <r>  0.0352  0.0771  0.0358 </r>
       </set>
       <set comment="band 8">
        <r>  0.0157  0.2716  0.0997 </r>
        <r>  0.0124  0.0991  0.0478 </r>
       </set>
      </set>
      <set comment="kpoint 27">
       <set comment="band 1">
        <r>  0.0366  0.0824  0.0174 </r>
        <r>  0.5940  0.0009  0.0001 </r>
       </set>
       <set comment="band 2">
        <r>  0.5809  0.0237  0.0035 </r>
        <r>  0.0204  0.1352  0.0041 </r>
       </set>
       <set comment="band 3">
        <r>  0.0099  0.2851  0.0144 </r>
        <r>  0.0013  0.2451  0.0013 </r>
       </set>
       <set comment="band 4">
        <r>  0.0039  0.2835  0.0252 </r>
        <r>  0.0009  0.3026  0.0023 </r>
       </set>
       <set comment="band 5">
        <r>  0.1734  0.1294  0.0560 </r>
        <r>  0.0393  0.1773  0.0205 </r>
       </set>
       <set comment="band 6">
        <r>  0.0197  0.1019  0.1159 </r>
        <r>  0.0159  0.1914  0.0240 </r>
       </set>
       <set comment="band 7">
        <r>  0.0600  0.2773  0.0446 </r>
        <r>  0.0278  0.1188  0.0366 </r>
       </set>
       <set comment="band 8">
        <r>  0.0058  0.3585  0.1165 </r>
        <r>  0.0229  0.0385  0.0463 </r>
       </set>
      </set>
      <set comment="kpoint 28">
       <set comment="band 1">
        <r>  0.0000  0.0969  0.0194 </r>
        <r>  0.6163  0.0000  0.0001 </r>
       </set>
       <set comment="band 2">
        <r>  0.6252  0.0002  0.0035 </r>
        <r>  0.0000  0.1355  0.0040 </r>
       </set>
       <set comment="band 3">
        <r>  0.0052  0.2788  0.0200 </r>
        <r>  0.0000  0.2826  0.0005 </r>
       </set>
       <set comment="band 4">
        <r>  0.0000  0.3239  0.0061 </r>
        <r>  0.0007  0.2682  0.0021 </r>
       </set>
       <set comment="band 5">
        <r>  0.0000  0.2514  0.0888 </r>
        <r>  0.0534  0.0492  0.0224 </r>
       </set>
       <set comment="band 6">
        <r>  0.2180  0.0234  0.0738 </r>
        <r>  0.0000  0.1884  0.0292 </r>
       </set>
       <set comment="band 7">
        <r>  0.0000  0.2910  0.1066 </r>
        <r>  0.0360  0.1515  0.0231 </r>
       </set>
       <set comment="band 8">
        <r>  0.0454  0.1889  0.0676 </r>
        <r>  0.0000  0.1771  0.0504 </r>
       </set>
      </set>
      <set comment="kpoint 29">
       <set comment="band 1">
        <r>  0.0000  0.0950  0.0201 </r>
        <r>  0.6186  0.0000  0.0000 </r>
       </set>
       <set comment="band 2">
        <r>  0.6433  0.0000  0.0011 </r>
        <r>  0.0000  0.1332  0.0046 </r>
       </set>
       <set comment="band 3">
        <r>  0.0000  0.2578  0.0272 </r>
        <r>  0.0000  0.2711  0.0000 </r>
       </set>
       <set comment="band 4">
        <r>  0.0000  0.3340  0.0021 </r>
        <r>  0.0000  0.2467  0.0030 </r>
       </set>
       <set comment="band 5">
        <r>  0.2518  0.0000  0.0328 </r>
        <r>  0.0000  0.3218  0.0225 </r>
       </set>
       <set comment="band 6">
        <r>  0.0000  0.0466  0.1619 </r>
        <r>  0.0000  0.1957  0.0267 </r>
       </set>
       <set comment="band 7">
        <r>  0.0000  0.4633  0.0419 </r>
        <r>  0.0973  0.0000  0.0189 </r>
       </set>
       <set comment="band 8">
        <r>  0.0000  0.2366  0.1347 </r>
        <r>  0.0000  0.0081  0.0658 </r>
       </set>
      </set>
     </set>
    </set>
   </array>
  </projected>
 </calculation>
 <structure name="finalpos" >
  <crystal>
   <varray name="basis" >
    <v>       0.00000000       3.10550802       3.10550802 </v>
    <v>       3.10550802       0.00000000       3.10550802 </v>
    <v>       3.10550802       3.10550802       0.00000000 </v>
   </varray>
   <i name="volume">     59.90015722 </i>
   <varray name="rec_basis" >
    <v>      -0.16100425       0.16100425       0.16100425 </v>
    <v>       0.16100425      -0.16100425       0.16100425 </v>
    <v>       0.16100425       0.16100425      -0.16100425 </v>
   </varray>
  </crystal>
  <varray name="positions" >
   <v>       0.00000000       0.00000000       0.00000000 </v>
   <v>       0.25000000       0.25000000       0.25000000 </v>
  </varray>
 </structure>
</modeling>
