InAs                                    
           1
     0.000000    3.105508    3.105508
     3.105508    0.000000    3.105508
     3.105508    3.105508    0.000000
   In   As
   1   1
Direct configuration=     1
   0.00000000  0.00000000  0.00000000
   0.25000000  0.25000000  0.25000000
