   2   2   1   0
  0.3025953E+02  0.4406926E-09  0.4406926E-09  0.4406926E-09  0.5000000E-15
  1.000000000000000E-004
  CAR 
 AlSb                                    
     13.80032745     -7.04472497   11      4.42005387      1.00000000
     -7.045  0.0000E+00  0.0000E+00
     -4.960  0.4497E-03  0.6602E-02
     -2.876  0.0000E+00  0.2000E-01
     -0.791  0.2981E-03  0.2121E-01
      1.293  0.1698E-03  0.3836E-01
      3.378  0.5481E-03  0.7228E-01
      5.462  0.0000E+00  0.8000E-01
      7.547  0.4497E-03  0.1049E+00
      9.631  0.1342E-02  0.1402E+00
     11.716  0.1513E-06  0.1588E+00
     13.800  0.0000E+00  0.1600E+00
     13.80032745     -7.04472497   11      4.42005387      1.00000000
     -7.045  0.0000E+00  0.0000E+00  0.0000E+00
     -4.960  0.1971E-02  0.4442E-03  0.0000E+00
     -2.876  0.0000E+00  0.0000E+00  0.0000E+00
     -0.791  0.5866E-02  0.2273E-03  0.0000E+00
      1.293  0.2548E-05  0.1151E-02  0.0000E+00
      3.378  0.3586E-03  0.3877E-02  0.0000E+00
      5.462  0.0000E+00  0.0000E+00  0.0000E+00
      7.547  0.2319E-02  0.5770E-02  0.0000E+00
      9.631  0.1233E-02  0.1540E-01  0.0000E+00
     11.716  0.1422E-19  0.1828E-05  0.0000E+00
     13.800  0.0000E+00  0.0000E+00  0.0000E+00
     13.80032745     -7.04472497   11      4.42005387      1.00000000
     -7.045  0.0000E+00  0.0000E+00  0.0000E+00
     -4.960  0.2092E-01  0.2286E-03  0.5986E-05
     -2.876  0.0000E+00  0.0000E+00  0.0000E+00
     -0.791  0.2891E-03  0.4187E-02  0.1072E-03
      1.293  0.4469E-05  0.3759E-02  0.2286E-04
      3.378  0.1532E-03  0.1616E-01  0.3051E-03
      5.462  0.0000E+00  0.0000E+00  0.0000E+00
      7.547  0.4537E-02  0.2678E-02  0.1230E-02
      9.631  0.1695E-02  0.1422E-01  0.7282E-02
     11.716  0.7401E-20  0.2209E-05  0.8497E-06
     13.800  0.0000E+00  0.0000E+00  0.0000E+00
