    2    2  100    1
  0.3025953E+02  0.4406926E-09  0.4406926E-09  0.4406926E-09  0.5000000E-15
  1.000000000000000E-004
  CAR 
 AlSb                                    
      8     29      8
 
  0.0000000E+00  0.0000000E+00  0.0000000E+00  0.1953125E-02
    1       -6.097223   1.000000
    2        4.373537   1.000000
    3        4.373537   1.000000
    4        4.373537   1.000000
    5        5.628513   0.000000
    6        7.449298   0.000000
    7        7.449298   0.000000
    8        7.449298   0.000000
 
  0.1250000E+00  0.6561555E-17 -0.4862429E-17  0.1562500E-01
    1       -5.961459   1.000000
    2        2.930990   1.000000
    3        4.195028   1.000000
    4        4.195028   1.000000
    5        6.250465   0.000000
    6        7.723299   0.000000
    7        7.723300   0.000000
    8        8.018207   0.000000
 
  0.2500000E+00  0.1312311E-16 -0.9724857E-17  0.1562500E-01
    1       -5.581396   1.000000
    2        1.129833   1.000000
    3        3.858411   1.000000
    4        3.858412   1.000000
    5        6.003319   0.000000
    6        8.117031   0.000000
    7        8.117032   0.000000
    8        9.755497   0.000000
 
  0.3750000E+00  0.5806878E-17 -0.7094981E-18  0.1562500E-01
    1       -5.079139   1.000000
    2       -0.280958   1.000000
    3        3.597864   1.000000
    4        3.597864   1.000000
    5        5.703366   0.000000
    6        8.147425   0.000000
    7        8.147425   0.000000
    8       10.996936   0.000000
 
  0.5000000E+00  0.2624622E-16 -0.1944971E-16  0.7812500E-02
    1       -4.802638   1.000000
    2       -0.866999   1.000000
    3        3.504168   1.000000
    4        3.504168   1.000000
    5        5.593794   0.000000
    6        8.091007   0.000000
    7        8.091008   0.000000
    8       10.931110   0.000000
 
  0.1250000E+00  0.1250000E+00  0.6796506E-17  0.1171875E-01
    1       -5.915633   1.000000
    2        2.942734   1.000000
    3        3.859016   1.000000
    4        3.859016   1.000000
    5        6.738028   0.000000
    6        7.202811   0.000000
    7        8.226174   0.000000
    8        8.226175   0.000000
 
  0.2500000E+00  0.1250000E+00  0.1602236E-17  0.4687500E-01
    1       -5.614117   1.000000
    2        1.559244   1.000000
    3        3.479308   1.000000
    4        3.484204   1.000000
    5        6.729129   0.000000
    6        7.484664   0.000000
    7        8.816973   0.000000
    8        8.981116   0.000000
 
  0.3750000E+00  0.1250000E+00 -0.6326604E-17  0.4687500E-01
    1       -5.137831   1.000000
    2        0.124857   1.000000
    3        3.017572   1.000000
    4        3.257758   1.000000
    5        6.537523   0.000000
    6        7.883395   0.000000
    7        8.886530   0.000000
    8        9.534946   0.000000
 
  0.5000000E+00  0.1250000E+00  0.8821579E-17  0.4687500E-01
    1       -4.743397   1.000000
    2       -0.736105   1.000000
    3        2.670946   1.000000
    4        3.257453   1.000000
    5        6.393847   0.000000
    6        7.957727   0.000000
    7        8.643482   0.000000
    8       10.896910   0.000000
 
 -0.3750000E+00  0.1250000E+00  0.2284797E-16  0.4687500E-01
    1       -4.841273   1.000000
    2       -0.538842   1.000000
    3        2.554515   1.000000
    4        3.471959   1.000000
    5        6.441571   0.000000
    6        8.116145   0.000000
    7        8.445768   0.000000
    8       11.113391   0.000000
 
 -0.2500000E+00  0.1250000E+00  0.4107751E-17  0.4687500E-01
    1       -5.309644   1.000000
    2        0.568739   1.000000
    3        2.727928   1.000000
    4        3.835037   1.000000
    5        6.656390   0.000000
    6        8.227958   0.000000
    7        8.299588   0.000000
    8        9.739018   0.000000
 
 -0.1250000E+00  0.1250000E+00  0.1312311E-16  0.2343750E-01
    1       -5.742701   1.000000
    2        1.967955   1.000000
    3        3.305780   1.000000
    4        4.174928   1.000000
    5        6.748517   0.000000
    6        7.813306   0.000000
    7        7.828959   0.000000
    8        9.005635   0.000000
 
  0.2500000E+00  0.2500000E+00  0.1359301E-16  0.1171875E-01
    1       -5.399098   1.000000
    2        1.189425   1.000000
    3        3.050984   1.000000
    4        3.050984   1.000000
    5        6.114644   0.000000
    6        7.374042   0.000000
    7        9.792919   0.000000
    8        9.792920   0.000000
 
  0.3750000E+00  0.2500000E+00  0.3275606E-16  0.4687500E-01
    1       -4.991277   1.000000
    2        0.229485   1.000000
    3        2.476751   1.000000
    4        2.795690   1.000000
    5        6.223975   0.000000
    6        7.316156   0.000000
    7        9.740923   0.000000
    8       10.242922   0.000000
 
  0.5000000E+00  0.2500000E+00  0.3204473E-17  0.4687500E-01
    1       -4.575295   1.000000
    2       -0.551226   1.000000
    3        1.808434   1.000000
    4        2.787054   1.000000
    5        6.310678   0.000000
    6        8.544851   0.000000
    7        9.471358   0.000000
    8       10.008995   0.000000
 
 -0.3750000E+00  0.2500000E+00  0.2336369E-16  0.4687500E-01
    1       -4.514885   1.000000
    2       -0.635569   1.000000
    3        1.463259   1.000000
    4        3.025045   1.000000
    5        6.505629   0.000000
    6        9.209239   0.000000
    7        9.616124   0.000000
    8       10.587879   0.000000
 
 -0.2500000E+00  0.2500000E+00  0.2624622E-16  0.2343750E-01
    1       -4.878012   1.000000
    2       -0.053951   1.000000
    3        1.694573   1.000000
    4        3.440968   1.000000
    5        6.846883   0.000000
    6        8.998788   0.000000
    7        9.179546   0.000000
    8        9.483032   0.000000
 
  0.3750000E+00  0.3750000E+00  0.2038952E-16  0.1171875E-01
    1       -4.680261   1.000000
    2       -0.292562   1.000000
    3        2.482966   1.000000
    4        2.482966   1.000000
    5        5.682930   0.000000
    6        6.374358   0.000000
    7       11.556277   0.000000
    8       11.556278   0.000000
 
  0.5000000E+00  0.3750000E+00  0.3308791E-16  0.4687500E-01
    1       -4.356735   1.000000
    2       -0.772113   1.000000
    3        1.915555   1.000000
    4        2.418293   1.000000
    5        5.871700   0.000000
    6        6.685305   0.000000
    7       11.536880   0.000000
    8       11.739867   0.000000
 
 -0.3750000E+00  0.3750000E+00  0.1161376E-16  0.2343750E-01
    1       -4.281752   1.000000
    2       -0.802310   1.000000
    3        1.288416   1.000000
    4        2.616240   1.000000
    5        6.090518   0.000000
    6        8.376198   0.000000
    7       11.022629   0.000000
    8       11.065390   0.000000
 
  0.5000000E+00  0.5000000E+00  0.2718602E-16  0.5859375E-02
    1       -4.243445   1.000000
    2       -0.988195   1.000000
    3        2.284601   1.000000
    4        2.284601   1.000000
    5        5.668031   0.000000
    6        5.834826   0.000000
    7       12.852825   0.000000
    8       12.852825   0.000000
 
  0.3750000E+00  0.2500000E+00  0.1250000E+00  0.4687500E-01
    1       -5.256992   1.000000
    2        0.705116   1.000000
    3        2.483629   1.000000
    4        3.373708   1.000000
    5        7.033774   0.000000
    6        7.613244   0.000000
    7        8.742837   0.000000
    8        9.563984   0.000000
 
  0.5000000E+00  0.2500000E+00  0.1250000E+00  0.9375000E-01
    1       -4.793862   1.000000
    2       -0.257235   1.000000
    3        1.958481   1.000000
    4        3.025849   1.000000
    5        7.158928   0.000000
    6        7.915634   0.000000
    7        9.039280   0.000000
    8        9.969243   0.000000
 
 -0.3750000E+00  0.2500000E+00  0.1250000E+00  0.4687500E-01
    1       -4.545373   1.000000
    2       -0.713833   1.000000
    3        1.818786   1.000000
    4        2.864122   1.000000
    5        7.124521   0.000000
    6        7.826730   0.000000
    7        9.767427   0.000000
    8       10.758229   0.000000
 
  0.5000000E+00  0.3750000E+00  0.1250000E+00  0.4687500E-01
    1       -4.604097   1.000000
    2       -0.379344   1.000000
    3        1.964436   1.000000
    4        2.432793   1.000000
    5        6.639399   0.000000
    6        7.181354   0.000000
    7        9.604379   0.000000
    8       11.493494   0.000000
 
 -0.3750000E+00  0.3750000E+00  0.1250000E+00  0.9375000E-01
    1       -4.329433   1.000000
    2       -0.725180   1.000000
    3        1.443799   1.000000
    4        2.292111   1.000000
    5        6.956615   0.000000
    6        8.493747   0.000000
    7        9.209516   0.000000
    8       10.898403   0.000000
 
 -0.2500000E+00  0.3750000E+00  0.1250000E+00  0.4687500E-01
    1       -4.430642   1.000000
    2       -0.592603   1.000000
    3        1.324828   1.000000
    4        2.564505   1.000000
    5        7.278081   0.000000
    6        8.724334   0.000000
    7        9.143234   0.000000
    8       10.646666   0.000000
 
 -0.3750000E+00  0.5000000E+00  0.1250000E+00  0.2343750E-01
    1       -4.230487   1.000000
    2       -0.893442   1.000000
    3        1.855395   1.000000
    4        2.005849   1.000000
    5        6.549661   0.000000
    6        6.792250   0.000000
    7       11.086382   0.000000
    8       11.432519   0.000000
 
 -0.2500000E+00  0.5000000E+00  0.2500000E+00  0.1171875E-01
    1       -4.217313   1.000000
    2       -0.781615   1.000000
    3        1.486867   1.000000
    4        1.781809   1.000000
    5        8.325911   0.000000
    6        8.642564   0.000000
    7        8.828990   0.000000
    8        9.148703   0.000000
