Thu Aug 23 16:51:23 -03 2018
----------------
PBS job running on: halfbeast
in directory:       /home/users/fbonani/TCC/wurtzite/AlSb/minimizacao
cpus: 5
gpus: 
nodefile:
halfbeast.fiscomp
halfbeast.fiscomp
halfbeast.fiscomp
halfbeast.fiscomp
halfbeast.fiscomp
----------------
 running on   10 total cores
 distrk:  each k-point on   10 cores,    1 groups
 distr:  one band on    5 cores,    2 groups
 using from now: INCAR     
 vasp.5.4.4.18Apr17-6-g9f103f2a35 (build Apr 10 2018 17:34:00) complex          
  
 POSCAR found type information on POSCAR  Al Sb
 POSCAR found :  2 types and       4 ions
 scaLAPACK will be used
 LDA part: xc-table for Pade appr. of Perdew
 generate k-points for:    8    8    4
 POSCAR, INCAR and KPOINTS ok, starting setup
 FFT: planning ...
 WAVECAR not read
 entering main loop
       N       E                     dE             d eps       ncg     rms          rms(c)
DAV:   1     0.477814903544E+02    0.47781E+02   -0.49428E+03   720   0.929E+02
DAV:   2    -0.131986059893E+02   -0.60980E+02   -0.57401E+02   960   0.137E+02
DAV:   3    -0.164975604408E+02   -0.32990E+01   -0.32608E+01   912   0.355E+01
DAV:   4    -0.165548779007E+02   -0.57317E-01   -0.57213E-01   852   0.554E+00
DAV:   5    -0.165563414183E+02   -0.14635E-02   -0.14632E-02   924   0.949E-01
DAV:   6    -0.165563981805E+02   -0.56762E-04   -0.56756E-04   952   0.168E-01
DAV:   7    -0.165564003636E+02   -0.21830E-05   -0.21831E-05   980   0.262E-02
DAV:   8    -0.165564004543E+02   -0.90708E-07   -0.90692E-07   768   0.438E-03    0.465E+00
DAV:   9    -0.164711930403E+02    0.85207E-01   -0.58182E-02   796   0.122E+00    0.374E+00
DAV:  10    -0.164090639480E+02    0.62129E-01   -0.37931E-01   828   0.321E+00    0.103E+00
DAV:  11    -0.164002084394E+02    0.88555E-02   -0.35496E-02   744   0.109E+00    0.276E-01
DAV:  12    -0.164000912215E+02    0.11722E-03   -0.62088E-03   824   0.408E-01    0.125E-01
DAV:  13    -0.163996431256E+02    0.44810E-03   -0.14685E-03   788   0.197E-01    0.466E-02
DAV:  14    -0.163996588690E+02   -0.15743E-04   -0.71460E-05   828   0.549E-02    0.127E-02
DAV:  15    -0.163996608597E+02   -0.19907E-05   -0.44123E-06   864   0.154E-02    0.724E-03
DAV:  16    -0.163996601849E+02    0.67481E-06   -0.12330E-06   836   0.668E-03    0.293E-03
DAV:  17    -0.163996600891E+02    0.95719E-07   -0.15284E-07   560   0.252E-03
   1 F= -.16399660E+02 E0= -.16399660E+02  d E =-.163997E+02
 curvature:   0.00 expect dE= 0.000E+00 dE for cont linesearch  0.000E+00
 trial: gam= 0.00000 g(F)=  0.130E-06 g(S)=  0.119E-06 ort = 0.000E+00 (trialstep = 0.100E+01)
 search vector abs. value=  0.249E-06
 reached required accuracy - stopping structural energy minimisation
Thu Aug 23 16:51:29 -03 2018
