       N       E                     dE             d eps       ncg     rms          rms(c)
DAV:   1     0.163113401030E+02    0.16311E+02   -0.26639E+03   464   0.655E+02
DAV:   2    -0.769223302858E+01   -0.24004E+02   -0.23667E+02   608   0.869E+01
DAV:   3    -0.828554221107E+01   -0.59331E+00   -0.59331E+00   576   0.169E+01
DAV:   4    -0.828928885520E+01   -0.37466E-02   -0.37466E-02   688   0.166E+00
DAV:   5    -0.828930083612E+01   -0.11981E-04   -0.11981E-04   640   0.835E-02
DAV:   6    -0.828930098650E+01   -0.15038E-06   -0.15038E-06   664   0.756E-03
DAV:   7    -0.828930099042E+01   -0.39115E-08   -0.39115E-08   632   0.627E-04
DAV:   8    -0.828930099058E+01   -0.16610E-09   -0.16605E-09   584   0.950E-05    0.329E+00
DAV:   9    -0.824779377628E+01    0.41507E-01   -0.37939E-02   472   0.912E-01    0.263E+00
DAV:  10    -0.821594758529E+01    0.31846E-01   -0.20116E-01   504   0.222E+00    0.835E-01
DAV:  11    -0.821342653428E+01    0.25211E-02   -0.20018E-02   464   0.756E-01    0.253E-01
DAV:  12    -0.821342815246E+01   -0.16182E-05   -0.23570E-03   552   0.275E-01    0.603E-02
DAV:  13    -0.821331042145E+01    0.11773E-03   -0.56578E-04   488   0.107E-01    0.296E-02
DAV:  14    -0.821332101381E+01   -0.10592E-04   -0.29831E-05   600   0.342E-02    0.107E-02
DAV:  15    -0.821332211009E+01   -0.10963E-05   -0.24608E-06   576   0.116E-02    0.766E-03
DAV:  16    -0.821332153243E+01    0.57767E-06   -0.18943E-06   576   0.670E-03    0.390E-04
DAV:  17    -0.821332150900E+01    0.23423E-07   -0.62283E-08   272   0.183E-03
   1 F= -.82133215E+01 E0= -.82133215E+01  d E =-.821332E+01
