 vasp.5.4.4.18Apr17-6-g9f103f2a35 (build Apr 10 2018 17:34:00) complex          
  
 executed on             LinuxIFC date 2018.10.04  08:05:26
 running on   10 total cores
 distrk:  each k-point on   10 cores,    1 groups
 distr:  one band on NCORES_PER_BAND=   5 cores,    2 groups


--------------------------------------------------------------------------------------------------------


 INCAR:
 POTCAR:    PAW_PBE Al 04Jan2001                  
 POTCAR:    PAW_PBE Sb 06Sep2000                  
 POTCAR:    PAW_PBE Al 04Jan2001                  
  local pseudopotential read in
  partial core-charges read in
  partial kinetic energy density read in
  atomic valenz-charges read in
  non local Contribution for L=           0  read in
    real space projection operators read in
  non local Contribution for L=           0  read in
    real space projection operators read in
  non local Contribution for L=           1  read in
    real space projection operators read in
  non local Contribution for L=           1  read in
    real space projection operators read in
    PAW grid and wavefunctions read in
 
   number of l-projection  operators is LMAX  =           4
   number of lm-projection operators is LMMAX =           8
 
 POTCAR:    PAW_PBE Sb 06Sep2000                  
  local pseudopotential read in
  partial core-charges read in
  partial kinetic energy density read in
  atomic valenz-charges read in
  non local Contribution for L=           0  read in
    real space projection operators read in
  non local Contribution for L=           0  read in
    real space projection operators read in
  non local Contribution for L=           1  read in
    real space projection operators read in
  non local Contribution for L=           1  read in
    real space projection operators read in
  non local Contribution for L=           2  read in
    real space projection operators read in
    PAW grid and wavefunctions read in
 
   number of l-projection  operators is LMAX  =           5
   number of lm-projection operators is LMMAX =          13
 
  PAW_PBE Al 04Jan2001                  :
 energy of atom  1       EATOM=  -53.5387
 kinetic energy error for atom=    0.0004 (will be added to EATOM!!)
  PAW_PBE Sb 06Sep2000                  :
 energy of atom  2       EATOM= -149.9515
 kinetic energy error for atom=    0.0006 (will be added to EATOM!!)
 
 
 POSCAR: AlSb                                    
  positions in direct lattice
  velocities in cartesian coordinates
 exchange correlation table for  LEXCH =        8
   RHO(1)=    0.500       N(1)  =     2000
   RHO(2)=  100.500       N(2)  =     4000
 


--------------------------------------------------------------------------------------------------------


 ion  position               nearest neighbor table
   1  0.000  0.000  0.000-   2 2.70   2 2.70   2 2.70   2 2.70
   2  0.250  0.250  0.250-   1 2.70   1 2.70   1 2.70   1 2.70
 
  LATTYP: Found a face centered cubic cell.
 ALAT       =     6.2323338525
  
  Lattice vectors:
  
 A1 = (   0.0000000000,   3.1161669263,   3.1161669263)
 A2 = (   3.1161669263,   0.0000000000,   3.1161669263)
 A3 = (   3.1161669263,   3.1161669263,   0.0000000000)


Analysis of symmetry for initial positions (statically):
=====================================================================
 Subroutine PRICEL returns:
 Original cell was already a primitive cell.
 

 Routine SETGRP: Setting up the symmetry group for a 
 face centered cubic supercell.


 Subroutine GETGRP returns: Found 24 space group operations
 (whereof 24 operations were pure point group operations)
 out of a pool of 48 trial point group operations.


The static configuration has the point symmetry T_d .


Analysis of symmetry for dynamics (positions and initial velocities):
=====================================================================
 Subroutine PRICEL returns:
 Original cell was already a primitive cell.
 

 Routine SETGRP: Setting up the symmetry group for a 
 face centered cubic supercell.


 Subroutine GETGRP returns: Found 24 space group operations
 (whereof 24 operations were pure point group operations)
 out of a pool of 48 trial point group operations.


The dynamic configuration has the point symmetry T_d .


 Subroutine INISYM returns: Found 24 space group operations
 (whereof 24 operations are pure point group operations),
 and found     1 'primitive' translations

 
 
 KPOINTS: AlSb                                    

Automatic generation of k-mesh.
 generate k-points for:    8    8    8
Space group operators:
 irot       det(A)        alpha          n_x          n_y          n_z        tau_x        tau_y        tau_z
    1     1.000000     0.000000     1.000000     0.000000     0.000000     0.000000     0.000000     0.000000
    2     1.000000   120.000000    -0.577350    -0.577350    -0.577350     0.000000     0.000000     0.000000
    3     1.000000   120.000000     0.577350     0.577350     0.577350     0.000000     0.000000     0.000000
    4    -1.000000    90.000000     0.000000     0.000000    -1.000000     0.000000     0.000000     0.000000
    5    -1.000000   180.000000    -0.000000     0.707107     0.707107     0.000000     0.000000     0.000000
    6    -1.000000    90.000000     0.000000     1.000000     0.000000     0.000000     0.000000     0.000000
    7     1.000000   180.000000    -0.000000     0.000000     1.000000     0.000000     0.000000     0.000000
    8     1.000000   120.000000    -0.577350     0.577350     0.577350     0.000000     0.000000     0.000000
    9     1.000000   120.000000    -0.577350     0.577350    -0.577350     0.000000     0.000000     0.000000
   10    -1.000000    90.000000    -0.000000    -0.000000     1.000000     0.000000     0.000000     0.000000
   11    -1.000000    90.000000    -1.000000    -0.000000    -0.000000     0.000000     0.000000     0.000000
   12    -1.000000   180.000000     0.707107     0.000000     0.707107     0.000000     0.000000     0.000000
   13     1.000000   120.000000     0.577350    -0.577350     0.577350     0.000000     0.000000     0.000000
   14     1.000000   120.000000    -0.577350    -0.577350     0.577350     0.000000     0.000000     0.000000
   15     1.000000   180.000000     1.000000     0.000000     0.000000     0.000000     0.000000     0.000000
   16    -1.000000    90.000000     0.000000    -1.000000     0.000000     0.000000     0.000000     0.000000
   17    -1.000000   180.000000     0.707107     0.707107     0.000000     0.000000     0.000000     0.000000
   18    -1.000000    90.000000     1.000000     0.000000     0.000000     0.000000     0.000000     0.000000
   19     1.000000   120.000000     0.577350    -0.577350    -0.577350     0.000000     0.000000     0.000000
   20     1.000000   180.000000     0.000000    -1.000000     0.000000     0.000000     0.000000     0.000000
   21     1.000000   120.000000     0.577350     0.577350    -0.577350     0.000000     0.000000     0.000000
   22    -1.000000   180.000000     0.000000    -0.707107     0.707107     0.000000     0.000000     0.000000
   23    -1.000000   180.000000     0.707107    -0.707107    -0.000000     0.000000     0.000000     0.000000
   24    -1.000000   180.000000     0.707107     0.000000    -0.707107     0.000000     0.000000     0.000000
 
 Subroutine IBZKPT returns following result:
 ===========================================
 
 Found     29 irreducible k-points:
 
 Following reciprocal coordinates:
            Coordinates               Weight
  0.000000  0.000000  0.000000      1.000000
  0.125000  0.000000 -0.000000      8.000000
  0.250000  0.000000 -0.000000      8.000000
  0.375000  0.000000 -0.000000      8.000000
  0.500000  0.000000 -0.000000      4.000000
  0.125000  0.125000  0.000000      6.000000
  0.250000  0.125000  0.000000     24.000000
  0.375000  0.125000 -0.000000     24.000000
  0.500000  0.125000  0.000000     24.000000
 -0.375000  0.125000  0.000000     24.000000
 -0.250000  0.125000  0.000000     24.000000
 -0.125000  0.125000  0.000000     12.000000
  0.250000  0.250000  0.000000      6.000000
  0.375000  0.250000  0.000000     24.000000
  0.500000  0.250000  0.000000     24.000000
 -0.375000  0.250000  0.000000     24.000000
 -0.250000  0.250000  0.000000     12.000000
  0.375000  0.375000  0.000000      6.000000
  0.500000  0.375000  0.000000     24.000000
 -0.375000  0.375000  0.000000     12.000000
  0.500000  0.500000  0.000000      3.000000
  0.375000  0.250000  0.125000     24.000000
  0.500000  0.250000  0.125000     48.000000
 -0.375000  0.250000  0.125000     24.000000
  0.500000  0.375000  0.125000     24.000000
 -0.375000  0.375000  0.125000     48.000000
 -0.250000  0.375000  0.125000     24.000000
 -0.375000  0.500000  0.125000     12.000000
 -0.250000  0.500000  0.250000      6.000000
 
 Following cartesian coordinates:
            Coordinates               Weight
  0.000000  0.000000  0.000000      1.000000
 -0.020057  0.020057  0.020057      8.000000
 -0.040113  0.040113  0.040113      8.000000
 -0.060170  0.060170  0.060170      8.000000
 -0.080227  0.080227  0.080227      4.000000
 -0.000000  0.000000  0.040113      6.000000
 -0.020057  0.020057  0.060170     24.000000
 -0.040113  0.040113  0.080227     24.000000
 -0.060170  0.060170  0.100283     24.000000
  0.080227 -0.080227 -0.040113     24.000000
  0.060170 -0.060170 -0.020057     24.000000
  0.040113 -0.040113  0.000000     12.000000
 -0.000000  0.000000  0.080227      6.000000
 -0.020057  0.020057  0.100283     24.000000
 -0.040113  0.040113  0.120340     24.000000
  0.100283 -0.100283 -0.020057     24.000000
  0.080227 -0.080227  0.000000     12.000000
  0.000000 -0.000000  0.120340      6.000000
 -0.020057  0.020057  0.140397     24.000000
  0.120340 -0.120340  0.000000     12.000000
 -0.000000  0.000000  0.160454      3.000000
  0.000000  0.040113  0.080227     24.000000
 -0.020057  0.060170  0.100283     48.000000
  0.120340 -0.080227 -0.040113     24.000000
 -0.000000  0.040113  0.120340     24.000000
  0.140397 -0.100283 -0.020057     48.000000
  0.120340 -0.080227  0.000000     24.000000
  0.160454 -0.120340 -0.000000     12.000000
  0.160454 -0.080227 -0.000000      6.000000
 


--------------------------------------------------------------------------------------------------------




 Dimension of arrays:
   k-points           NKPTS =     29   k-points in BZ     NKDIM =     29   number of bands    NBANDS=      8
   number of dos      NEDOS =     11   number of ions     NIONS =      2
   non local maximal  LDIM  =      5   non local SUM 2l+1 LMDIM =     13
   total plane-waves  NPLWV =  32768
   max r-space proj   IRMAX =      1   max aug-charges    IRDMAX= 240559
   dimension x,y,z NGX =    32 NGY =   32 NGZ =   32
   dimension x,y,z NGXF=    64 NGYF=   64 NGZF=   64
   support grid    NGXF=   128 NGYF=  128 NGZF=  128
   ions per type =               1   1
   NGX,Y,Z   is equivalent  to a cutoff of  12.07, 12.07, 12.07 a.u.
   NGXF,Y,Z  is equivalent  to a cutoff of  24.14, 24.14, 24.14 a.u.

 SYSTEM =  AlSb                                    
 POSCAR =  AlSb                                    

 Startparameter for this run:
   NWRITE =      1    write-flag & timer
   PREC   = accura    normal or accurate (medium, high low for compatibility)
   ISTART =      0    job   : 0-new  1-cont  2-samecut
   ICHARG =      2    charge: 1-file 2-atom 10-const
   ISPIN  =      1    spin polarized calculation?
   LNONCOLLINEAR =      F non collinear calculations
   LSORBIT =      F    spin-orbit coupling
   INIWAV =      1    electr: 0-lowe 1-rand  2-diag
   LASPH  =      T    aspherical Exc in radial PAW
   METAGGA=      F    non-selfconsistent MetaGGA calc.

 Electronic Relaxation 1
   ENCUT  =  460.0 eV  33.81 Ry    5.81 a.u.   7.71  7.71  7.71*2*pi/ulx,y,z
   ENINI  =  460.0     initial cutoff
   ENAUG  =  380.5 eV  augmentation charge cutoff
   NELM   =    100;   NELMIN=  6; NELMDL= -8     # of ELM steps 
   EDIFF  = 0.1E-06   stopping-criterion for ELM
   LREAL  =      F    real-space projection
   NLSPLINE    = F    spline interpolate recip. space projectors
   LCOMPAT=      F    compatible to vasp.4.4
   GGA_COMPAT  = T    GGA compatible to vasp.4.4-vasp.4.6
   LMAXPAW     = -100 max onsite density
   LMAXMIX     =    6 max onsite mixed and CHGCAR
   VOSKOWN=      0    Vosko Wilk Nusair interpolation
   ROPT   =    0.00000   0.00000
 Ionic relaxation
   EDIFFG = -.1E-02   stopping-criterion for IOM
   NSW    =    100    number of steps for IOM
   NBLOCK =      1;   KBLOCK =    100    inner block; outer block 
   IBRION =      2    ionic relax: 0-MD 1-quasi-New 2-CG
   NFREE  =      1    steps in history (QN), initial steepest desc. (CG)
   ISIF   =      3    stress and relaxation
   IWAVPR =     11    prediction:  0-non 1-charg 2-wave 3-comb
   ISYM   =      2    0-nonsym 1-usesym 2-fastsym
   LCORR  =      T    Harris-Foulkes like correction to forces

   POTIM  = 0.5000    time-step for ionic-motion
   TEIN   =    0.0    initial temperature
   TEBEG  =    0.0;   TEEND  =   0.0 temperature during run
   SMASS  =  -3.00    Nose mass-parameter (am)
   estimated Nose-frequenzy (Omega)   =  0.10E-29 period in steps =****** mass=  -0.444E-27a.u.
   SCALEE = 1.0000    scale energy and forces
   NPACO  =    256;   APACO  = 16.0  distance and # of slots for P.C.
   PSTRESS=    0.0 pullay stress

  Mass of Ions in am
   POMASS =  26.98121.75
  Ionic Valenz
   ZVAL   =   3.00  5.00
  Atomic Wigner-Seitz radii
   RWIGS  =  -1.00 -1.00
  virtual crystal weights 
   VCA    =   1.00  1.00
   NELECT =       8.0000    total number of electrons
   NUPDOWN=      -1.0000    fix difference up-down

 DOS related values:
   EMIN   =  10.00;   EMAX   =-10.00  energy-range for DOS
   EFERMI =   0.00
   ISMEAR =     0;   SIGMA  =   0.01  broadening in eV -4-tet -1-fermi 0-gaus

 Electronic relaxation 2 (details)
   IALGO  =     38    algorithm
   LDIAG  =      T    sub-space diagonalisation (order eigenvalues)
   LSUBROT=      F    optimize rotation matrix (better conditioning)
   TURBO    =      0    0=normal 1=particle mesh
   IRESTART =      0    0=no restart 2=restart with 2 vectors
   NREBOOT  =      0    no. of reboots
   NMIN     =      0    reboot dimension
   EREF     =   0.00    reference energy to select bands
   IMIX   =      4    mixing-type and parameters
     AMIX     =   0.20;   BMIX     =  0.00
     AMIX_MAG =   0.80;   BMIX_MAG =  0.00
     AMIN     =   0.10
     WC   =   100.;   INIMIX=   1;  MIXPRE=   1;  MAXMIX= -45

 Intra band minimization:
   WEIMIN = 0.0010     energy-eigenvalue tresh-hold
   EBREAK =  0.31E-08  absolut break condition
   DEPER  =   0.30     relativ break condition  

   TIME   =   0.40     timestep for ELM

  volume/ion in A,a.u.               =      30.26       204.20
  Fermi-wavevector in a.u.,A,eV,Ry     =   0.833951  1.575940  9.462513  0.695475
  Thomas-Fermi vector in A             =   1.947262
 
 Write flags
   LWAVE        =      F    write WAVECAR
   LDOWNSAMPLE  =      F    k-point downsampling of WAVECAR
   LCHARG       =      F    write CHGCAR
   LVTOT        =      F    write LOCPOT, total local potential
   LVHAR        =      F    write LOCPOT, Hartree potential only
   LELF         =      F    write electronic localiz. function (ELF)
   LORBIT       =     10    0 simple, 1 ext, 2 COOP (PROOUT), +10 PAW based schemes


 Dipole corrections
   LMONO  =      F    monopole corrections only (constant potential shift)
   LDIPOL =      F    correct potential (dipole corrections)
   IDIPOL =      0    1-x, 2-y, 3-z, 4-all directions 
   EPSILON=  1.0000000 bulk dielectric constant

 Exchange correlation treatment:
   GGA     =    --    GGA type
   LEXCH   =     8    internal setting for exchange type
   VOSKOWN=      0    Vosko Wilk Nusair interpolation
   LHFCALC =     F    Hartree Fock is set to
   LHFONE  =     F    Hartree Fock one center treatment
   AEXX    =    0.0000 exact exchange contribution

 Linear response parameters
   LEPSILON=     F    determine dielectric tensor
   LRPA    =     F    only Hartree local field effects (RPA)
   LNABLA  =     F    use nabla operator in PAW spheres
   LVEL    =     F    velocity operator in full k-point grid
   LINTERFAST=   F  fast interpolation
   KINTER  =     0    interpolate to denser k-point grid
   CSHIFT  =0.1000    complex shift for real part using Kramers Kronig
   OMEGAMAX=  -1.0    maximum frequency
   DEG_THRESHOLD= 0.2000000E-02 threshold for treating states as degnerate
   RTIME   =   -0.100 relaxation time in fs
  (WPLASMAI=    0.000 imaginary part of plasma frequency in eV, 0.658/RTIME)
   DFIELD  = 0.0000000 0.0000000 0.0000000 field for delta impulse in time
 
 Orbital magnetization related:
   ORBITALMAG=     F  switch on orbital magnetization
   LCHIMAG   =     F  perturbation theory with respect to B field
   DQ        =  0.001000  dq finite difference perturbation B field
   LLRAUG    =     F  two centre corrections for induced B field



--------------------------------------------------------------------------------------------------------


 conjugate gradient relaxation of ions
 charge density and potential will be updated during run
 non-spin polarized calculation
 Variant of blocked Davidson
 Davidson routine will perform the subspace rotation
 perform sub-space diagonalisation
    after iterative eigenvector-optimisation
 modified Broyden-mixing scheme, WC =      100.0
 initial mixing is a Kerker type mixing with AMIX =  0.2000 and BMIX =      0.0010
 Hartree-type preconditioning will be used
 using additional bands            4
 reciprocal scheme for non local part
 use partial core corrections
 calculate Harris-corrections to forces 
   (improved forces if not selfconsistent)
 use gradient corrections 
 use of overlap-Matrix (Vanderbilt PP)
 Gauss-broadening in eV      SIGMA  =   0.01


--------------------------------------------------------------------------------------------------------


  energy-cutoff  :      460.00
  volume of cell :       60.52
      direct lattice vectors                 reciprocal lattice vectors
     0.000000000  3.116166926  3.116166926    -0.160453535  0.160453535  0.160453535
     3.116166926  0.000000000  3.116166926     0.160453535 -0.160453535  0.160453535
     3.116166926  3.116166926  0.000000000     0.160453535  0.160453535 -0.160453535

  length of vectors
     4.406925530  4.406925530  4.406925530     0.277913675  0.277913675  0.277913675


 
 k-points in units of 2pi/SCALE and weight: AlSb                                    
   0.00000000  0.00000000  0.00000000       0.002
  -0.02005669  0.02005669  0.02005669       0.016
  -0.04011338  0.04011338  0.04011338       0.016
  -0.06017008  0.06017008  0.06017008       0.016
  -0.08022677  0.08022677  0.08022677       0.008
  -0.00000000  0.00000000  0.04011338       0.012
  -0.02005669  0.02005669  0.06017008       0.047
  -0.04011338  0.04011338  0.08022677       0.047
  -0.06017008  0.06017008  0.10028346       0.047
   0.08022677 -0.08022677 -0.04011338       0.047
   0.06017008 -0.06017008 -0.02005669       0.047
   0.04011338 -0.04011338 -0.00000000       0.023
  -0.00000000  0.00000000  0.08022677       0.012
  -0.02005669  0.02005669  0.10028346       0.047
  -0.04011338  0.04011338  0.12034015       0.047
   0.10028346 -0.10028346 -0.02005669       0.047
   0.08022677 -0.08022677 -0.00000000       0.023
   0.00000000 -0.00000000  0.12034015       0.012
  -0.02005669  0.02005669  0.14039684       0.047
   0.12034015 -0.12034015 -0.00000000       0.023
  -0.00000000  0.00000000  0.16045354       0.006
   0.00000000  0.04011338  0.08022677       0.047
  -0.02005669  0.06017008  0.10028346       0.094
   0.12034015 -0.08022677 -0.04011338       0.047
  -0.00000000  0.04011338  0.12034015       0.047
   0.14039684 -0.10028346 -0.02005669       0.094
   0.12034015 -0.08022677 -0.00000000       0.047
   0.16045354 -0.12034015 -0.00000000       0.023
   0.16045354 -0.08022677 -0.00000000       0.012
 
 k-points in reciprocal lattice and weights: AlSb                                    
   0.00000000  0.00000000  0.00000000       0.002
   0.12500000  0.00000000 -0.00000000       0.016
   0.25000000  0.00000000 -0.00000000       0.016
   0.37500000  0.00000000 -0.00000000       0.016
   0.50000000  0.00000000 -0.00000000       0.008
   0.12500000  0.12500000  0.00000000       0.012
   0.25000000  0.12500000  0.00000000       0.047
   0.37500000  0.12500000 -0.00000000       0.047
   0.50000000  0.12500000  0.00000000       0.047
  -0.37500000  0.12500000  0.00000000       0.047
  -0.25000000  0.12500000  0.00000000       0.047
  -0.12500000  0.12500000  0.00000000       0.023
   0.25000000  0.25000000  0.00000000       0.012
   0.37500000  0.25000000  0.00000000       0.047
   0.50000000  0.25000000  0.00000000       0.047
  -0.37500000  0.25000000  0.00000000       0.047
  -0.25000000  0.25000000  0.00000000       0.023
   0.37500000  0.37500000  0.00000000       0.012
   0.50000000  0.37500000  0.00000000       0.047
  -0.37500000  0.37500000  0.00000000       0.023
   0.50000000  0.50000000  0.00000000       0.006
   0.37500000  0.25000000  0.12500000       0.047
   0.50000000  0.25000000  0.12500000       0.094
  -0.37500000  0.25000000  0.12500000       0.047
   0.50000000  0.37500000  0.12500000       0.047
  -0.37500000  0.37500000  0.12500000       0.094
  -0.25000000  0.37500000  0.12500000       0.047
  -0.37500000  0.50000000  0.12500000       0.023
  -0.25000000  0.50000000  0.25000000       0.012
 
 position of ions in fractional coordinates (direct lattice) 
   0.00000000  0.00000000  0.00000000
   0.25000000  0.25000000  0.25000000
 
 position of ions in cartesian coordinates  (Angst):
   0.00000000  0.00000000  0.00000000
   1.55808346  1.55808346  1.55808346
 


--------------------------------------------------------------------------------------------------------


 k-point  1 :   0.0000 0.0000 0.0000  plane waves:    1363
 k-point  2 :   0.1250 0.0000-0.0000  plane waves:    1366
 k-point  3 :   0.2500 0.0000-0.0000  plane waves:    1363
 k-point  4 :   0.3750 0.0000-0.0000  plane waves:    1362
 k-point  5 :   0.5000 0.0000-0.0000  plane waves:    1380
 k-point  6 :   0.1250 0.1250 0.0000  plane waves:    1355
 k-point  7 :   0.2500 0.1250 0.0000  plane waves:    1352
 k-point  8 :   0.3750 0.1250-0.0000  plane waves:    1354
 k-point  9 :   0.5000 0.1250 0.0000  plane waves:    1360
 k-point 10 :  -0.3750 0.1250 0.0000  plane waves:    1363
 k-point 11 :  -0.2500 0.1250 0.0000  plane waves:    1353
 k-point 12 :  -0.1250 0.1250 0.0000  plane waves:    1365
 k-point 13 :   0.2500 0.2500 0.0000  plane waves:    1355
 k-point 14 :   0.3750 0.2500 0.0000  plane waves:    1355
 k-point 15 :   0.5000 0.2500 0.0000  plane waves:    1359
 k-point 16 :  -0.3750 0.2500 0.0000  plane waves:    1352
 k-point 17 :  -0.2500 0.2500 0.0000  plane waves:    1360
 k-point 18 :   0.3750 0.3750 0.0000  plane waves:    1359
 k-point 19 :   0.5000 0.3750 0.0000  plane waves:    1350
 k-point 20 :  -0.3750 0.3750 0.0000  plane waves:    1350
 k-point 21 :   0.5000 0.5000 0.0000  plane waves:    1362
 k-point 22 :   0.3750 0.2500 0.1250  plane waves:    1347
 k-point 23 :   0.5000 0.2500 0.1250  plane waves:    1353
 k-point 24 :  -0.3750 0.2500 0.1250  plane waves:    1356
 k-point 25 :   0.5000 0.3750 0.1250  plane waves:    1353
 k-point 26 :  -0.3750 0.3750 0.1250  plane waves:    1358
 k-point 27 :  -0.2500 0.3750 0.1250  plane waves:    1348
 k-point 28 :  -0.3750 0.5000 0.1250  plane waves:    1358
 k-point 29 :  -0.2500 0.5000 0.2500  plane waves:    1348

 maximum and minimum number of plane-waves per node :       285      260

 maximum number of plane-waves:      1380
 maximum index in each direction: 
   IXMAX=    8   IYMAX=    7   IZMAX=    7
   IXMIN=   -8   IYMIN=   -8   IZMIN=   -7


 parallel 3D FFT for wavefunctions:
    minimum data exchange during FFTs selected (reduces bandwidth)
 parallel 3D FFT for charge:
    minimum data exchange during FFTs selected (reduces bandwidth)


 total amount of memory used by VASP MPI-rank0    38396. kBytes
=======================================================================

   base      :      30000. kBytes
   nonl-proj :       1734. kBytes
   fftplans  :       4167. kBytes
   grid      :       1931. kBytes
   one-center:          8. kBytes
   wavefun   :        556. kBytes
 
     INWAV:  cpu time    0.0000: real time    0.0000
 Broyden mixing: mesh for mixing (old mesh)
   NGX = 15   NGY = 15   NGZ = 15
  (NGX  = 64   NGY  = 64   NGZ  = 64)
  gives a total of   3375 points

 initial charge density was supplied:
 charge density of overlapping atoms calculated
 number of electron       8.0000000 magnetization 
 keeping initial charge density in first step


--------------------------------------------------------------------------------------------------------


 Maximum index for augmentation-charges        23594 (set IRDMAX)


--------------------------------------------------------------------------------------------------------


 First call to EWALD:  gamma=   0.451
 Maximum number of real-space cells 3x 3x 3
 Maximum number of reciprocal cells 3x 3x 3

    FEWALD:  cpu time    0.0007: real time    0.0007


--------------------------------------- Iteration      1(   1)  ---------------------------------------


    POTLOK:  cpu time    0.0089: real time    0.0089
    SETDIJ:  cpu time    0.0950: real time    0.0950
     EDDAV:  cpu time    0.0403: real time    0.0403
       DOS:  cpu time    0.0002: real time    0.0002
    --------------------------------------------
      LOOP:  cpu time    0.1445: real time    0.1445

 eigenvalue-minimisations  :   464
 total energy-change (2. order) : 0.1631134E+02  (-0.2663909E+03)
 number of electron       8.0000000 magnetization 
 augmentation part        8.0000000 magnetization 

 Free energy of the ion-electron system (eV)
  ---------------------------------------------------
  alpha Z        PSCENC =        -1.72369768
  Ewald energy   TEWEN  =      -207.87931148
  -Hartree energ DENC   =       -13.37455951
  -exchange      EXHF   =         0.00000000
  -V(xc)+E(xc)   XCENC  =       -72.86565113
  PAW double counting   =       229.87962722     -143.96909389
  entropy T*S    EENTRO =        -0.00004549
  eigenvalues    EBANDS =        22.75485631
  atomic energy  EATOM  =       203.48921574
  Solvation  Ediel_sol  =         0.00000000
  ---------------------------------------------------
  free energy    TOTEN  =        16.31134010 eV

  energy without entropy =       16.31138559  energy(sigma->0) =       16.31136285


--------------------------------------------------------------------------------------------------------




--------------------------------------- Iteration      1(   2)  ---------------------------------------


     EDDAV:  cpu time    0.0511: real time    0.0511
       DOS:  cpu time    0.0001: real time    0.0001
    --------------------------------------------
      LOOP:  cpu time    0.0511: real time    0.0511

 eigenvalue-minimisations  :   608
 total energy-change (2. order) :-0.2400357E+02  (-0.2366706E+02)
 number of electron       8.0000000 magnetization 
 augmentation part        8.0000000 magnetization 

 Free energy of the ion-electron system (eV)
  ---------------------------------------------------
  alpha Z        PSCENC =        -1.72369768
  Ewald energy   TEWEN  =      -207.87931148
  -Hartree energ DENC   =       -13.37455951
  -exchange      EXHF   =         0.00000000
  -V(xc)+E(xc)   XCENC  =       -72.86565113
  PAW double counting   =       229.87962722     -143.96909389
  entropy T*S    EENTRO =         0.00000000
  eigenvalues    EBANDS =        -1.24876231
  atomic energy  EATOM  =       203.48921574
  Solvation  Ediel_sol  =         0.00000000
  ---------------------------------------------------
  free energy    TOTEN  =        -7.69223303 eV

  energy without entropy =       -7.69223303  energy(sigma->0) =       -7.69223303


--------------------------------------------------------------------------------------------------------




--------------------------------------- Iteration      1(   3)  ---------------------------------------


     EDDAV:  cpu time    0.0489: real time    0.0489
       DOS:  cpu time    0.0001: real time    0.0001
    --------------------------------------------
      LOOP:  cpu time    0.0490: real time    0.0490

 eigenvalue-minimisations  :   576
 total energy-change (2. order) :-0.5933092E+00  (-0.5933092E+00)
 number of electron       8.0000000 magnetization 
 augmentation part        8.0000000 magnetization 

 Free energy of the ion-electron system (eV)
  ---------------------------------------------------
  alpha Z        PSCENC =        -1.72369768
  Ewald energy   TEWEN  =      -207.87931148
  -Hartree energ DENC   =       -13.37455951
  -exchange      EXHF   =         0.00000000
  -V(xc)+E(xc)   XCENC  =       -72.86565113
  PAW double counting   =       229.87962722     -143.96909389
  entropy T*S    EENTRO =        -0.00000000
  eigenvalues    EBANDS =        -1.84207149
  atomic energy  EATOM  =       203.48921574
  Solvation  Ediel_sol  =         0.00000000
  ---------------------------------------------------
  free energy    TOTEN  =        -8.28554221 eV

  energy without entropy =       -8.28554221  energy(sigma->0) =       -8.28554221


--------------------------------------------------------------------------------------------------------




--------------------------------------- Iteration      1(   4)  ---------------------------------------


     EDDAV:  cpu time    0.0580: real time    0.0580
       DOS:  cpu time    0.0001: real time    0.0001
    --------------------------------------------
      LOOP:  cpu time    0.0580: real time    0.0580

 eigenvalue-minimisations  :   688
 total energy-change (2. order) :-0.3746644E-02  (-0.3746644E-02)
 number of electron       8.0000000 magnetization 
 augmentation part        8.0000000 magnetization 

 Free energy of the ion-electron system (eV)
  ---------------------------------------------------
  alpha Z        PSCENC =        -1.72369768
  Ewald energy   TEWEN  =      -207.87931148
  -Hartree energ DENC   =       -13.37455951
  -exchange      EXHF   =         0.00000000
  -V(xc)+E(xc)   XCENC  =       -72.86565113
  PAW double counting   =       229.87962722     -143.96909389
  entropy T*S    EENTRO =        -0.00000000
  eigenvalues    EBANDS =        -1.84581813
  atomic energy  EATOM  =       203.48921574
  Solvation  Ediel_sol  =         0.00000000
  ---------------------------------------------------
  free energy    TOTEN  =        -8.28928886 eV

  energy without entropy =       -8.28928886  energy(sigma->0) =       -8.28928886


--------------------------------------------------------------------------------------------------------




--------------------------------------- Iteration      1(   5)  ---------------------------------------


     EDDAV:  cpu time    0.0546: real time    0.0546
       DOS:  cpu time    0.0001: real time    0.0001
    --------------------------------------------
      LOOP:  cpu time    0.0547: real time    0.0547

 eigenvalue-minimisations  :   640
 total energy-change (2. order) :-0.1198092E-04  (-0.1198092E-04)
 number of electron       8.0000000 magnetization 
 augmentation part        8.0000000 magnetization 

 Free energy of the ion-electron system (eV)
  ---------------------------------------------------
  alpha Z        PSCENC =        -1.72369768
  Ewald energy   TEWEN  =      -207.87931148
  -Hartree energ DENC   =       -13.37455951
  -exchange      EXHF   =         0.00000000
  -V(xc)+E(xc)   XCENC  =       -72.86565113
  PAW double counting   =       229.87962722     -143.96909389
  entropy T*S    EENTRO =        -0.00000000
  eigenvalues    EBANDS =        -1.84583011
  atomic energy  EATOM  =       203.48921574
  Solvation  Ediel_sol  =         0.00000000
  ---------------------------------------------------
  free energy    TOTEN  =        -8.28930084 eV

  energy without entropy =       -8.28930084  energy(sigma->0) =       -8.28930084


--------------------------------------------------------------------------------------------------------




--------------------------------------- Iteration      1(   6)  ---------------------------------------


     EDDAV:  cpu time    0.0564: real time    0.0564
       DOS:  cpu time    0.0001: real time    0.0001
    --------------------------------------------
      LOOP:  cpu time    0.0565: real time    0.0565

 eigenvalue-minimisations  :   664
 total energy-change (2. order) :-0.1503833E-06  (-0.1503833E-06)
 number of electron       8.0000000 magnetization 
 augmentation part        8.0000000 magnetization 

 Free energy of the ion-electron system (eV)
  ---------------------------------------------------
  alpha Z        PSCENC =        -1.72369768
  Ewald energy   TEWEN  =      -207.87931148
  -Hartree energ DENC   =       -13.37455951
  -exchange      EXHF   =         0.00000000
  -V(xc)+E(xc)   XCENC  =       -72.86565113
  PAW double counting   =       229.87962722     -143.96909389
  entropy T*S    EENTRO =        -0.00000000
  eigenvalues    EBANDS =        -1.84583026
  atomic energy  EATOM  =       203.48921574
  Solvation  Ediel_sol  =         0.00000000
  ---------------------------------------------------
  free energy    TOTEN  =        -8.28930099 eV

  energy without entropy =       -8.28930099  energy(sigma->0) =       -8.28930099


--------------------------------------------------------------------------------------------------------




--------------------------------------- Iteration      1(   7)  ---------------------------------------


     EDDAV:  cpu time    0.0538: real time    0.0538
       DOS:  cpu time    0.0001: real time    0.0001
    --------------------------------------------
      LOOP:  cpu time    0.0539: real time    0.0539

 eigenvalue-minimisations  :   632
 total energy-change (2. order) :-0.3911509E-08  (-0.3911473E-08)
 number of electron       8.0000000 magnetization 
 augmentation part        8.0000000 magnetization 

 Free energy of the ion-electron system (eV)
  ---------------------------------------------------
  alpha Z        PSCENC =        -1.72369768
  Ewald energy   TEWEN  =      -207.87931148
  -Hartree energ DENC   =       -13.37455951
  -exchange      EXHF   =         0.00000000
  -V(xc)+E(xc)   XCENC  =       -72.86565113
  PAW double counting   =       229.87962722     -143.96909389
  entropy T*S    EENTRO =        -0.00000000
  eigenvalues    EBANDS =        -1.84583027
  atomic energy  EATOM  =       203.48921574
  Solvation  Ediel_sol  =         0.00000000
  ---------------------------------------------------
  free energy    TOTEN  =        -8.28930099 eV

  energy without entropy =       -8.28930099  energy(sigma->0) =       -8.28930099


--------------------------------------------------------------------------------------------------------




--------------------------------------- Iteration      1(   8)  ---------------------------------------


     EDDAV:  cpu time    0.0512: real time    0.0512
       DOS:  cpu time    0.0001: real time    0.0001
    CHARGE:  cpu time    0.0216: real time    0.0216
    MIXING:  cpu time    0.0004: real time    0.0004
    --------------------------------------------
      LOOP:  cpu time    0.0733: real time    0.0733

 eigenvalue-minimisations  :   584
 total energy-change (2. order) :-0.1660965E-09  (-0.1660509E-09)
 number of electron       8.0000000 magnetization 
 augmentation part       -0.8301591 magnetization 

 Broyden mixing:
  rms(total) = 0.32860E+00    rms(broyden)= 0.32860E+00
  rms(prec ) = 0.63957E+00
  weight for this iteration     100.00

 Free energy of the ion-electron system (eV)
  ---------------------------------------------------
  alpha Z        PSCENC =        -1.72369768
  Ewald energy   TEWEN  =      -207.87931148
  -Hartree energ DENC   =       -13.37455951
  -exchange      EXHF   =         0.00000000
  -V(xc)+E(xc)   XCENC  =       -72.86565113
  PAW double counting   =       229.87962722     -143.96909389
  entropy T*S    EENTRO =        -0.00000000
  eigenvalues    EBANDS =        -1.84583027
  atomic energy  EATOM  =       203.48921574
  Solvation  Ediel_sol  =         0.00000000
  ---------------------------------------------------
  free energy    TOTEN  =        -8.28930099 eV

  energy without entropy =       -8.28930099  energy(sigma->0) =       -8.28930099


--------------------------------------------------------------------------------------------------------




--------------------------------------- Iteration      1(   9)  ---------------------------------------


    POTLOK:  cpu time    0.0067: real time    0.0067
    SETDIJ:  cpu time    0.0949: real time    0.0949
     EDDAV:  cpu time    0.0404: real time    0.0404
       DOS:  cpu time    0.0001: real time    0.0001
    CHARGE:  cpu time    0.0214: real time    0.0214
    MIXING:  cpu time    0.0004: real time    0.0004
    --------------------------------------------
      LOOP:  cpu time    0.1639: real time    0.1639

 eigenvalue-minimisations  :   472
 total energy-change (2. order) : 0.4150721E-01  (-0.3793937E-02)
 number of electron       8.0000000 magnetization 
 augmentation part       -0.8212627 magnetization 

 Broyden mixing:
  rms(total) = 0.26336E+00    rms(broyden)= 0.26336E+00
  rms(prec ) = 0.48691E+00
  weight for this iteration     100.00

 eigenvalues of (default mixing * dielectric matrix)
  average eigenvalue GAMMA=   4.6906
  4.6906

 Free energy of the ion-electron system (eV)
  ---------------------------------------------------
  alpha Z        PSCENC =        -1.72369768
  Ewald energy   TEWEN  =      -207.87931148
  -Hartree energ DENC   =       -14.08976307
  -exchange      EXHF   =         0.00000000
  -V(xc)+E(xc)   XCENC  =       -72.76208080
  PAW double counting   =       274.22213315     -188.34628145
  entropy T*S    EENTRO =        -0.00000000
  eigenvalues    EBANDS =        -1.15800819
  atomic energy  EATOM  =       203.48921574
  Solvation  Ediel_sol  =         0.00000000
  ---------------------------------------------------
  free energy    TOTEN  =        -8.24779378 eV

  energy without entropy =       -8.24779378  energy(sigma->0) =       -8.24779378


--------------------------------------------------------------------------------------------------------




--------------------------------------- Iteration      1(  10)  ---------------------------------------


    POTLOK:  cpu time    0.0067: real time    0.0067
    SETDIJ:  cpu time    0.0950: real time    0.0950
     EDDAV:  cpu time    0.0428: real time    0.0428
       DOS:  cpu time    0.0001: real time    0.0001
    CHARGE:  cpu time    0.0213: real time    0.0213
    MIXING:  cpu time    0.0005: real time    0.0005
    --------------------------------------------
      LOOP:  cpu time    0.1664: real time    0.1664

 eigenvalue-minimisations  :   504
 total energy-change (2. order) : 0.3184619E-01  (-0.2011604E-01)
 number of electron       8.0000000 magnetization 
 augmentation part       -0.8003017 magnetization 

 Broyden mixing:
  rms(total) = 0.83487E-01    rms(broyden)= 0.83487E-01
  rms(prec ) = 0.13292E+00
  weight for this iteration     100.00

 eigenvalues of (default mixing * dielectric matrix)
  average eigenvalue GAMMA=   3.9408
  2.3983  5.4834

 Free energy of the ion-electron system (eV)
  ---------------------------------------------------
  alpha Z        PSCENC =        -1.72369768
  Ewald energy   TEWEN  =      -207.87931148
  -Hartree energ DENC   =       -16.19629251
  -exchange      EXHF   =         0.00000000
  -V(xc)+E(xc)   XCENC  =       -72.42079706
  PAW double counting   =       447.41193730     -361.62961358
  entropy T*S    EENTRO =         0.00000000
  eigenvalues    EBANDS =         0.73261168
  atomic energy  EATOM  =       203.48921574
  Solvation  Ediel_sol  =         0.00000000
  ---------------------------------------------------
  free energy    TOTEN  =        -8.21594759 eV

  energy without entropy =       -8.21594759  energy(sigma->0) =       -8.21594759


--------------------------------------------------------------------------------------------------------




--------------------------------------- Iteration      1(  11)  ---------------------------------------


    POTLOK:  cpu time    0.0067: real time    0.0067
    SETDIJ:  cpu time    0.0949: real time    0.0949
     EDDAV:  cpu time    0.0397: real time    0.0397
       DOS:  cpu time    0.0001: real time    0.0001
    CHARGE:  cpu time    0.0215: real time    0.0215
    MIXING:  cpu time    0.0004: real time    0.0004
    --------------------------------------------
      LOOP:  cpu time    0.1634: real time    0.1634

 eigenvalue-minimisations  :   464
 total energy-change (2. order) : 0.2521051E-02  (-0.2001815E-02)
 number of electron       8.0000000 magnetization 
 augmentation part       -0.8033829 magnetization 

 Broyden mixing:
  rms(total) = 0.25294E-01    rms(broyden)= 0.25294E-01
  rms(prec ) = 0.32923E-01
  weight for this iteration     100.00

 eigenvalues of (default mixing * dielectric matrix)
  average eigenvalue GAMMA=   3.3437
  5.4137  2.7277  1.8895

 Free energy of the ion-electron system (eV)
  ---------------------------------------------------
  alpha Z        PSCENC =        -1.72369768
  Ewald energy   TEWEN  =      -207.87931148
  -Hartree energ DENC   =       -16.37596192
  -exchange      EXHF   =         0.00000000
  -V(xc)+E(xc)   XCENC  =       -72.32337106
  PAW double counting   =       514.99343592     -429.21673308
  entropy T*S    EENTRO =        -0.00000000
  eigenvalues    EBANDS =         0.82299702
  atomic energy  EATOM  =       203.48921574
  Solvation  Ediel_sol  =         0.00000000
  ---------------------------------------------------
  free energy    TOTEN  =        -8.21342653 eV

  energy without entropy =       -8.21342653  energy(sigma->0) =       -8.21342653


--------------------------------------------------------------------------------------------------------




--------------------------------------- Iteration      1(  12)  ---------------------------------------


    POTLOK:  cpu time    0.0067: real time    0.0067
    SETDIJ:  cpu time    0.0950: real time    0.0950
     EDDAV:  cpu time    0.0463: real time    0.0463
       DOS:  cpu time    0.0001: real time    0.0001
    CHARGE:  cpu time    0.0215: real time    0.0215
    MIXING:  cpu time    0.0004: real time    0.0004
    --------------------------------------------
      LOOP:  cpu time    0.1700: real time    0.1700

 eigenvalue-minimisations  :   552
 total energy-change (2. order) :-0.1618181E-05  (-0.2356966E-03)
 number of electron       8.0000000 magnetization 
 augmentation part       -0.8061978 magnetization 

 Broyden mixing:
  rms(total) = 0.60323E-02    rms(broyden)= 0.60323E-02
  rms(prec ) = 0.15842E-01
  weight for this iteration     100.00

 eigenvalues of (default mixing * dielectric matrix)
  average eigenvalue GAMMA=   2.7989
  4.7980  0.9307  2.9468  2.5200

 Free energy of the ion-electron system (eV)
  ---------------------------------------------------
  alpha Z        PSCENC =        -1.72369768
  Ewald energy   TEWEN  =      -207.87931148
  -Hartree energ DENC   =       -16.30226453
  -exchange      EXHF   =         0.00000000
  -V(xc)+E(xc)   XCENC  =       -72.31509920
  PAW double counting   =       529.90107683     -444.11981624
  entropy T*S    EENTRO =        -0.00000000
  eigenvalues    EBANDS =         0.73646840
  atomic energy  EATOM  =       203.48921574
  Solvation  Ediel_sol  =         0.00000000
  ---------------------------------------------------
  free energy    TOTEN  =        -8.21342815 eV

  energy without entropy =       -8.21342815  energy(sigma->0) =       -8.21342815


--------------------------------------------------------------------------------------------------------




--------------------------------------- Iteration      1(  13)  ---------------------------------------


    POTLOK:  cpu time    0.0067: real time    0.0067
    SETDIJ:  cpu time    0.0949: real time    0.0949
     EDDAV:  cpu time    0.0418: real time    0.0418
       DOS:  cpu time    0.0001: real time    0.0001
    CHARGE:  cpu time    0.0214: real time    0.0215
    MIXING:  cpu time    0.0005: real time    0.0005
    --------------------------------------------
      LOOP:  cpu time    0.1654: real time    0.1654

 eigenvalue-minimisations  :   488
 total energy-change (2. order) : 0.1177310E-03  (-0.5657759E-04)
 number of electron       8.0000000 magnetization 
 augmentation part       -0.8055994 magnetization 

 Broyden mixing:
  rms(total) = 0.29568E-02    rms(broyden)= 0.29568E-02
  rms(prec ) = 0.41772E-02
  weight for this iteration     100.00

 eigenvalues of (default mixing * dielectric matrix)
  average eigenvalue GAMMA=   2.7538
  5.0739  3.9851  2.3511  1.0819  1.2771

 Free energy of the ion-electron system (eV)
  ---------------------------------------------------
  alpha Z        PSCENC =        -1.72369768
  Ewald energy   TEWEN  =      -207.87931148
  -Hartree energ DENC   =       -16.28865668
  -exchange      EXHF   =         0.00000000
  -V(xc)+E(xc)   XCENC  =       -72.32016955
  PAW double counting   =       529.17182926     -443.38979430
  entropy T*S    EENTRO =        -0.00000000
  eigenvalues    EBANDS =         0.72727425
  atomic energy  EATOM  =       203.48921574
  Solvation  Ediel_sol  =         0.00000000
  ---------------------------------------------------
  free energy    TOTEN  =        -8.21331042 eV

  energy without entropy =       -8.21331042  energy(sigma->0) =       -8.21331042


--------------------------------------------------------------------------------------------------------




--------------------------------------- Iteration      1(  14)  ---------------------------------------


    POTLOK:  cpu time    0.0067: real time    0.0067
    SETDIJ:  cpu time    0.0950: real time    0.0950
     EDDAV:  cpu time    0.0504: real time    0.0504
       DOS:  cpu time    0.0001: real time    0.0001
    CHARGE:  cpu time    0.0212: real time    0.0212
    MIXING:  cpu time    0.0006: real time    0.0006
    --------------------------------------------
      LOOP:  cpu time    0.1739: real time    0.1739

 eigenvalue-minimisations  :   600
 total energy-change (2. order) :-0.1059236E-04  (-0.2983115E-05)
 number of electron       8.0000000 magnetization 
 augmentation part       -0.8056883 magnetization 

 Broyden mixing:
  rms(total) = 0.10708E-02    rms(broyden)= 0.10708E-02
  rms(prec ) = 0.16912E-02
  weight for this iteration     100.00

 eigenvalues of (default mixing * dielectric matrix)
  average eigenvalue GAMMA=   2.8373
  5.1510  4.4085  2.7027  2.7027  1.0296  1.0296

 Free energy of the ion-electron system (eV)
  ---------------------------------------------------
  alpha Z        PSCENC =        -1.72369768
  Ewald energy   TEWEN  =      -207.87931148
  -Hartree energ DENC   =       -16.28261093
  -exchange      EXHF   =         0.00000000
  -V(xc)+E(xc)   XCENC  =       -72.31718479
  PAW double counting   =       532.74058664     -446.95806774
  entropy T*S    EENTRO =        -0.00000000
  eigenvalues    EBANDS =         0.71774921
  atomic energy  EATOM  =       203.48921574
  Solvation  Ediel_sol  =         0.00000000
  ---------------------------------------------------
  free energy    TOTEN  =        -8.21332101 eV

  energy without entropy =       -8.21332101  energy(sigma->0) =       -8.21332101


--------------------------------------------------------------------------------------------------------




--------------------------------------- Iteration      1(  15)  ---------------------------------------


    POTLOK:  cpu time    0.0067: real time    0.0067
    SETDIJ:  cpu time    0.0949: real time    0.0949
     EDDAV:  cpu time    0.0476: real time    0.0476
       DOS:  cpu time    0.0001: real time    0.0001
    CHARGE:  cpu time    0.0215: real time    0.0215
    MIXING:  cpu time    0.0005: real time    0.0004
    --------------------------------------------
      LOOP:  cpu time    0.1712: real time    0.1712

 eigenvalue-minimisations  :   576
 total energy-change (2. order) :-0.1096281E-05  (-0.2460810E-06)
 number of electron       8.0000000 magnetization 
 augmentation part       -0.8056970 magnetization 

 Broyden mixing:
  rms(total) = 0.76640E-03    rms(broyden)= 0.76640E-03
  rms(prec ) = 0.11431E-02
  weight for this iteration     100.00

 eigenvalues of (default mixing * dielectric matrix)
  average eigenvalue GAMMA=   2.8040
  5.3664  4.8325  3.7067  2.4640  1.0325  1.0325  1.1932

 Free energy of the ion-electron system (eV)
  ---------------------------------------------------
  alpha Z        PSCENC =        -1.72369768
  Ewald energy   TEWEN  =      -207.87931148
  -Hartree energ DENC   =       -16.28419961
  -exchange      EXHF   =         0.00000000
  -V(xc)+E(xc)   XCENC  =       -72.31720297
  PAW double counting   =       532.23420480     -446.45177235
  entropy T*S    EENTRO =        -0.00000000
  eigenvalues    EBANDS =         0.71944144
  atomic energy  EATOM  =       203.48921574
  Solvation  Ediel_sol  =         0.00000000
  ---------------------------------------------------
  free energy    TOTEN  =        -8.21332211 eV

  energy without entropy =       -8.21332211  energy(sigma->0) =       -8.21332211


--------------------------------------------------------------------------------------------------------




--------------------------------------- Iteration      1(  16)  ---------------------------------------


    POTLOK:  cpu time    0.0067: real time    0.0067
    SETDIJ:  cpu time    0.0950: real time    0.0950
     EDDAV:  cpu time    0.0483: real time    0.0483
       DOS:  cpu time    0.0001: real time    0.0001
    CHARGE:  cpu time    0.0213: real time    0.0213
    MIXING:  cpu time    0.0006: real time    0.0006
    --------------------------------------------
      LOOP:  cpu time    0.1719: real time    0.1719

 eigenvalue-minimisations  :   576
 total energy-change (2. order) : 0.5776658E-06  (-0.1894347E-06)
 number of electron       8.0000000 magnetization 
 augmentation part       -0.8056192 magnetization 

 Broyden mixing:
  rms(total) = 0.38955E-04    rms(broyden)= 0.38927E-04
  rms(prec ) = 0.72679E-04
  weight for this iteration     100.00

 eigenvalues of (default mixing * dielectric matrix)
  average eigenvalue GAMMA=   2.8274
  5.4439  4.9616  3.7740  2.8008  2.5499  1.0190  1.0351  1.0351

 Free energy of the ion-electron system (eV)
  ---------------------------------------------------
  alpha Z        PSCENC =        -1.72369768
  Ewald energy   TEWEN  =      -207.87931148
  -Hartree energ DENC   =       -16.28847510
  -exchange      EXHF   =         0.00000000
  -V(xc)+E(xc)   XCENC  =       -72.31745254
  PAW double counting   =       531.45178994     -445.66958177
  entropy T*S    EENTRO =        -0.00000000
  eigenvalues    EBANDS =         0.72419135
  atomic energy  EATOM  =       203.48921574
  Solvation  Ediel_sol  =         0.00000000
  ---------------------------------------------------
  free energy    TOTEN  =        -8.21332153 eV

  energy without entropy =       -8.21332153  energy(sigma->0) =       -8.21332153


--------------------------------------------------------------------------------------------------------




--------------------------------------- Iteration      1(  17)  ---------------------------------------


    POTLOK:  cpu time    0.0067: real time    0.0067
    SETDIJ:  cpu time    0.0950: real time    0.0950
     EDDAV:  cpu time    0.0278: real time    0.0278
       DOS:  cpu time    0.0001: real time    0.0001
    --------------------------------------------
      LOOP:  cpu time    0.1295: real time    0.1295

 eigenvalue-minimisations  :   272
 total energy-change (2. order) : 0.2342318E-07  (-0.6228303E-08)
 number of electron       8.0000000 magnetization 
 augmentation part       -0.8056192 magnetization 

 Free energy of the ion-electron system (eV)
  ---------------------------------------------------
  alpha Z        PSCENC =        -1.72369768
  Ewald energy   TEWEN  =      -207.87931148
  -Hartree energ DENC   =       -16.28874822
  -exchange      EXHF   =         0.00000000
  -V(xc)+E(xc)   XCENC  =       -72.31745397
  PAW double counting   =       531.39180078     -445.60957572
  entropy T*S    EENTRO =        -0.00000000
  eigenvalues    EBANDS =         0.72444905
  atomic energy  EATOM  =       203.48921574
  Solvation  Ediel_sol  =         0.00000000
  ---------------------------------------------------
  free energy    TOTEN  =        -8.21332151 eV

  energy without entropy =       -8.21332151  energy(sigma->0) =       -8.21332151


--------------------------------------------------------------------------------------------------------




 average (electrostatic) potential at core
  the test charge radii are     1.0406  1.1712
  (the norm of the test charge is              1.0000)
       1 -76.1674       2 -87.5141
 
 
 
 E-fermi :   4.4201     XC(G=0):  -8.4682     alpha+bet : -9.9713


 k-point     1 :       0.0000    0.0000    0.0000
  band No.  band energies     occupation 
      1      -6.0972      2.00000
      2       4.3735      2.00000
      3       4.3735      2.00000
      4       4.3735      2.00000
      5       5.6285      0.00000
      6       7.4493      0.00000
      7       7.4493      0.00000
      8       7.4493      0.00000

 k-point     2 :       0.1250    0.0000   -0.0000
  band No.  band energies     occupation 
      1      -5.9615      2.00000
      2       2.9310      2.00000
      3       4.1950      2.00000
      4       4.1950      2.00000
      5       6.2505      0.00000
      6       7.7233      0.00000
      7       7.7233      0.00000
      8       8.0182      0.00000

 k-point     3 :       0.2500    0.0000   -0.0000
  band No.  band energies     occupation 
      1      -5.5814      2.00000
      2       1.1298      2.00000
      3       3.8584      2.00000
      4       3.8584      2.00000
      5       6.0033      0.00000
      6       8.1170      0.00000
      7       8.1170      0.00000
      8       9.7555      0.00000

 k-point     4 :       0.3750    0.0000   -0.0000
  band No.  band energies     occupation 
      1      -5.0791      2.00000
      2      -0.2810      2.00000
      3       3.5979      2.00000
      4       3.5979      2.00000
      5       5.7034      0.00000
      6       8.1474      0.00000
      7       8.1474      0.00000
      8      10.9969      0.00000

 k-point     5 :       0.5000    0.0000   -0.0000
  band No.  band energies     occupation 
      1      -4.8026      2.00000
      2      -0.8670      2.00000
      3       3.5042      2.00000
      4       3.5042      2.00000
      5       5.5938      0.00000
      6       8.0910      0.00000
      7       8.0910      0.00000
      8      10.9311      0.00000

 k-point     6 :       0.1250    0.1250    0.0000
  band No.  band energies     occupation 
      1      -5.9156      2.00000
      2       2.9427      2.00000
      3       3.8590      2.00000
      4       3.8590      2.00000
      5       6.7380      0.00000
      6       7.2028      0.00000
      7       8.2262      0.00000
      8       8.2262      0.00000

 k-point     7 :       0.2500    0.1250    0.0000
  band No.  band energies     occupation 
      1      -5.6141      2.00000
      2       1.5592      2.00000
      3       3.4793      2.00000
      4       3.4842      2.00000
      5       6.7291      0.00000
      6       7.4847      0.00000
      7       8.8170      0.00000
      8       8.9811      0.00000

 k-point     8 :       0.3750    0.1250   -0.0000
  band No.  band energies     occupation 
      1      -5.1378      2.00000
      2       0.1249      2.00000
      3       3.0176      2.00000
      4       3.2578      2.00000
      5       6.5375      0.00000
      6       7.8834      0.00000
      7       8.8865      0.00000
      8       9.5349      0.00000

 k-point     9 :       0.5000    0.1250    0.0000
  band No.  band energies     occupation 
      1      -4.7434      2.00000
      2      -0.7361      2.00000
      3       2.6709      2.00000
      4       3.2575      2.00000
      5       6.3938      0.00000
      6       7.9577      0.00000
      7       8.6435      0.00000
      8      10.8969      0.00000

 k-point    10 :      -0.3750    0.1250    0.0000
  band No.  band energies     occupation 
      1      -4.8413      2.00000
      2      -0.5388      2.00000
      3       2.5545      2.00000
      4       3.4720      2.00000
      5       6.4416      0.00000
      6       8.1161      0.00000
      7       8.4458      0.00000
      8      11.1134      0.00000

 k-point    11 :      -0.2500    0.1250    0.0000
  band No.  band energies     occupation 
      1      -5.3096      2.00000
      2       0.5687      2.00000
      3       2.7279      2.00000
      4       3.8350      2.00000
      5       6.6564      0.00000
      6       8.2280      0.00000
      7       8.2996      0.00000
      8       9.7390      0.00000

 k-point    12 :      -0.1250    0.1250    0.0000
  band No.  band energies     occupation 
      1      -5.7427      2.00000
      2       1.9680      2.00000
      3       3.3058      2.00000
      4       4.1749      2.00000
      5       6.7485      0.00000
      6       7.8133      0.00000
      7       7.8290      0.00000
      8       9.0056      0.00000

 k-point    13 :       0.2500    0.2500    0.0000
  band No.  band energies     occupation 
      1      -5.3991      2.00000
      2       1.1894      2.00000
      3       3.0510      2.00000
      4       3.0510      2.00000
      5       6.1146      0.00000
      6       7.3740      0.00000
      7       9.7929      0.00000
      8       9.7929      0.00000

 k-point    14 :       0.3750    0.2500    0.0000
  band No.  band energies     occupation 
      1      -4.9913      2.00000
      2       0.2295      2.00000
      3       2.4768      2.00000
      4       2.7957      2.00000
      5       6.2240      0.00000
      6       7.3162      0.00000
      7       9.7409      0.00000
      8      10.2429      0.00000

 k-point    15 :       0.5000    0.2500    0.0000
  band No.  band energies     occupation 
      1      -4.5753      2.00000
      2      -0.5512      2.00000
      3       1.8084      2.00000
      4       2.7871      2.00000
      5       6.3107      0.00000
      6       8.5449      0.00000
      7       9.4714      0.00000
      8      10.0090      0.00000

 k-point    16 :      -0.3750    0.2500    0.0000
  band No.  band energies     occupation 
      1      -4.5149      2.00000
      2      -0.6356      2.00000
      3       1.4633      2.00000
      4       3.0250      2.00000
      5       6.5056      0.00000
      6       9.2092      0.00000
      7       9.6161      0.00000
      8      10.5879      0.00000

 k-point    17 :      -0.2500    0.2500    0.0000
  band No.  band energies     occupation 
      1      -4.8780      2.00000
      2      -0.0540      2.00000
      3       1.6946      2.00000
      4       3.4410      2.00000
      5       6.8469      0.00000
      6       8.9988      0.00000
      7       9.1795      0.00000
      8       9.4830      0.00000

 k-point    18 :       0.3750    0.3750    0.0000
  band No.  band energies     occupation 
      1      -4.6803      2.00000
      2      -0.2926      2.00000
      3       2.4830      2.00000
      4       2.4830      2.00000
      5       5.6829      0.00000
      6       6.3744      0.00000
      7      11.5563      0.00000
      8      11.5563      0.00000

 k-point    19 :       0.5000    0.3750    0.0000
  band No.  band energies     occupation 
      1      -4.3567      2.00000
      2      -0.7721      2.00000
      3       1.9156      2.00000
      4       2.4183      2.00000
      5       5.8717      0.00000
      6       6.6853      0.00000
      7      11.5369      0.00000
      8      11.7399      0.00000

 k-point    20 :      -0.3750    0.3750    0.0000
  band No.  band energies     occupation 
      1      -4.2818      2.00000
      2      -0.8023      2.00000
      3       1.2884      2.00000
      4       2.6162      2.00000
      5       6.0905      0.00000
      6       8.3762      0.00000
      7      11.0226      0.00000
      8      11.0654      0.00000

 k-point    21 :       0.5000    0.5000    0.0000
  band No.  band energies     occupation 
      1      -4.2434      2.00000
      2      -0.9882      2.00000
      3       2.2846      2.00000
      4       2.2846      2.00000
      5       5.6680      0.00000
      6       5.8348      0.00000
      7      12.8528      0.00000
      8      12.8528      0.00000

 k-point    22 :       0.3750    0.2500    0.1250
  band No.  band energies     occupation 
      1      -5.2570      2.00000
      2       0.7051      2.00000
      3       2.4836      2.00000
      4       3.3737      2.00000
      5       7.0338      0.00000
      6       7.6132      0.00000
      7       8.7428      0.00000
      8       9.5640      0.00000

 k-point    23 :       0.5000    0.2500    0.1250
  band No.  band energies     occupation 
      1      -4.7939      2.00000
      2      -0.2572      2.00000
      3       1.9585      2.00000
      4       3.0258      2.00000
      5       7.1589      0.00000
      6       7.9156      0.00000
      7       9.0393      0.00000
      8       9.9692      0.00000

 k-point    24 :      -0.3750    0.2500    0.1250
  band No.  band energies     occupation 
      1      -4.5454      2.00000
      2      -0.7138      2.00000
      3       1.8188      2.00000
      4       2.8641      2.00000
      5       7.1245      0.00000
      6       7.8267      0.00000
      7       9.7674      0.00000
      8      10.7582      0.00000

 k-point    25 :       0.5000    0.3750    0.1250
  band No.  band energies     occupation 
      1      -4.6041      2.00000
      2      -0.3793      2.00000
      3       1.9644      2.00000
      4       2.4328      2.00000
      5       6.6394      0.00000
      6       7.1814      0.00000
      7       9.6044      0.00000
      8      11.4935      0.00000

 k-point    26 :      -0.3750    0.3750    0.1250
  band No.  band energies     occupation 
      1      -4.3294      2.00000
      2      -0.7252      2.00000
      3       1.4438      2.00000
      4       2.2921      2.00000
      5       6.9566      0.00000
      6       8.4937      0.00000
      7       9.2095      0.00000
      8      10.8984      0.00000

 k-point    27 :      -0.2500    0.3750    0.1250
  band No.  band energies     occupation 
      1      -4.4306      2.00000
      2      -0.5926      2.00000
      3       1.3248      2.00000
      4       2.5645      2.00000
      5       7.2781      0.00000
      6       8.7243      0.00000
      7       9.1432      0.00000
      8      10.6467      0.00000

 k-point    28 :      -0.3750    0.5000    0.1250
  band No.  band energies     occupation 
      1      -4.2305      2.00000
      2      -0.8934      2.00000
      3       1.8554      2.00000
      4       2.0058      2.00000
      5       6.5497      0.00000
      6       6.7922      0.00000
      7      11.0864      0.00000
      8      11.4325      0.00000

 k-point    29 :      -0.2500    0.5000    0.2500
  band No.  band energies     occupation 
      1      -4.2173      2.00000
      2      -0.7816      2.00000
      3       1.4869      2.00000
      4       1.7818      2.00000
      5       8.3259      0.00000
      6       8.6426      0.00000
      7       8.8290      0.00000
      8       9.1487      0.00000


--------------------------------------------------------------------------------------------------------


 soft charge-density along one line, spin component           1
         0         1         2         3         4         5         6         7         8         9
 total charge-density along one line
 
 pseudopotential strength for first ion, spin component:           1
  8.564  14.601   0.000   0.000   0.000   0.000   0.000   0.000
 14.601  24.895   0.000   0.000   0.000   0.000   0.000   0.000
  0.000   0.000   1.982   0.000   0.000   5.740   0.000   0.000
  0.000   0.000   0.000   1.982   0.000   0.000   5.740   0.000
  0.000   0.000   0.000   0.000   1.982   0.000   0.000   5.740
  0.000   0.000   5.740   0.000   0.000  16.521   0.000   0.000
  0.000   0.000   0.000   5.740   0.000   0.000  16.521   0.000
  0.000   0.000   0.000   0.000   5.740   0.000   0.000  16.521
 total augmentation occupancy for first ion, spin component:           1
  3.023  -0.656   0.000   0.000   0.000   0.000   0.000   0.000
 -0.656   0.175   0.000   0.000   0.000   0.000   0.000   0.000
  0.000   0.000   1.062   0.000  -0.000  -0.059   0.000  -0.000
  0.000   0.000   0.000   1.062  -0.000   0.000  -0.059   0.000
  0.000   0.000  -0.000  -0.000   1.062   0.000  -0.000  -0.059
  0.000   0.000  -0.059   0.000   0.000   0.004  -0.000  -0.000
  0.000   0.000   0.000  -0.059   0.000   0.000   0.004   0.000
  0.000   0.000   0.000   0.000  -0.059   0.000  -0.000   0.004


------------------------ aborting loop because EDIFF is reached ----------------------------------------


 


 total charge     
 
# of ion       s       p       d       tot
------------------------------------------
    1        0.418   0.341   0.000   0.759
    2        1.112   1.390   0.022   2.524
--------------------------------------------------
tot          1.530   1.731   0.022   3.283
 
    CHARGE:  cpu time    0.0215: real time    0.0215
    FORLOC:  cpu time    0.0007: real time    0.0007
    FORNL :  cpu time    0.1051: real time    0.1051
    STRESS:  cpu time    0.3464: real time    0.3464
    FORCOR:  cpu time    0.0073: real time    0.0073
    FORHAR:  cpu time    0.0016: real time    0.0016
    MIXING:  cpu time    0.0004: real time    0.0004
    OFIELD:  cpu time    0.0000: real time    0.0000

  FORCE on cell =-STRESS in cart. coord.  units (eV):
  Direction    XX          YY          ZZ          XY          YZ          ZX
  --------------------------------------------------------------------------------------
  Alpha Z    -1.72370    -1.72370    -1.72370
  Ewald     -69.29313   -69.29313   -69.29313    -0.00000    -0.00000     0.00000
  Hartree     5.42944     5.42944     5.42944     0.00000     0.00000     0.00000
  E(xc)     -28.82307   -28.82307   -28.82307     0.00000     0.00000     0.00000
  Local     -39.45651   -39.45651   -39.45651     0.00000     0.00000     0.00000
  n-local   104.47273   105.72112    99.92968     2.65878    -1.55648     0.76130
  augment   -17.50276   -17.50276   -17.50276    -0.00000    -0.00000    -0.00000
  Kinetic    49.73142    48.81540    45.43621     3.21794    -1.17625     1.06012
  Fock        0.00000     0.00000     0.00000     0.00000     0.00000     0.00000
  -------------------------------------------------------------------------------------
  Total      -0.00087    -0.00087    -0.00087    -0.00000     0.00000    -0.00000
  in kB      -0.02315    -0.02315    -0.02315    -0.00000     0.00000    -0.00000
  external pressure =       -0.02 kB  Pullay stress =        0.00 kB


 VOLUME and BASIS-vectors are now :
 -----------------------------------------------------------------------------
  energy-cutoff  :      460.00
  volume of cell :       60.52
      direct lattice vectors                 reciprocal lattice vectors
     0.000000000  3.116166926  3.116166926    -0.160453535  0.160453535  0.160453535
     3.116166926  0.000000000  3.116166926     0.160453535 -0.160453535  0.160453535
     3.116166926  3.116166926  0.000000000     0.160453535  0.160453535 -0.160453535

  length of vectors
     4.406925530  4.406925530  4.406925530     0.277913675  0.277913675  0.277913675


 FORCES acting on ions
    electron-ion (+dipol)            ewald-force                    non-local-force                 convergence-correction
 -----------------------------------------------------------------------------------------------
   -.280E-06 -.280E-06 -.285E-06   0.443E-14 -.748E-14 0.600E-14   -.430E-16 -.153E-16 -.291E-16   -.137E-09 -.137E-09 -.137E-09
   0.393E-07 0.393E-07 0.388E-07   -.442E-14 0.755E-14 -.571E-14   -.946E-16 -.136E-15 -.919E-16   0.287E-09 0.287E-09 0.287E-09
 -----------------------------------------------------------------------------------------------
   -.241E-06 -.241E-06 -.246E-06   0.573E-17 0.722E-16 0.296E-15   -.138E-15 -.151E-15 -.121E-15   0.150E-09 0.150E-09 0.150E-09
 
 
 POSITION                                       TOTAL-FORCE (eV/Angst)
 -----------------------------------------------------------------------------------
      0.00000      0.00000      0.00000         0.000000     -0.000000      0.000000
      1.55808      1.55808      1.55808        -0.000000      0.000000     -0.000000
 -----------------------------------------------------------------------------------
    total drift:                               -0.000000     -0.000000     -0.000000


--------------------------------------------------------------------------------------------------------



  FREE ENERGIE OF THE ION-ELECTRON SYSTEM (eV)
  ---------------------------------------------------
  free  energy   TOTEN  =        -8.21332151 eV

  energy  without entropy=       -8.21332151  energy(sigma->0) =       -8.21332151
 


--------------------------------------------------------------------------------------------------------


    POTLOK:  cpu time    0.1012: real time    0.1012


--------------------------------------------------------------------------------------------------------




--------------------------------------------------------------------------------------------------------


  
 reached required accuracy - stopping structural energy minimisation
     LOOP+:  cpu time    2.7026: real time    2.7026
    4ORBIT:  cpu time    0.0000: real time    0.0000
 


 total charge     
 
# of ion       s       p       d       tot
------------------------------------------
    1        0.418   0.341   0.000   0.759
    2        1.112   1.390   0.022   2.524
--------------------------------------------------
tot          1.530   1.731   0.022   3.283
 

 total amount of memory used by VASP MPI-rank0    38396. kBytes
=======================================================================

   base      :      30000. kBytes
   nonl-proj :       1734. kBytes
   fftplans  :       4167. kBytes
   grid      :       1931. kBytes
   one-center:          8. kBytes
   wavefun   :        556. kBytes
 
  
  
 General timing and accounting informations for this job:
 ========================================================
  
                  Total CPU time used (sec):        3.267
                            User time (sec):        3.007
                          System time (sec):        0.261
                         Elapsed time (sec):        3.280
  
                   Maximum memory used (kb):       77008.
                   Average memory used (kb):           0.
  
                          Minor page faults:       157588
                          Major page faults:            0
                 Voluntary context switches:           46
