PROCAR new format
# of k-points:   29         # of bands:    8         # of ions:    2

 k-point     1 :    0.00000000 0.00000000 0.00000000     weight = 0.00195312

band     1 # energy   -6.09722258 # occ.  2.00000000
 
ion      s      p      d    tot
    1  0.074  0.000  0.000  0.074
    2  0.398  0.000  0.000  0.398
tot    0.472  0.000  0.000  0.472
 
band     2 # energy    4.37353723 # occ.  2.00000000
 
ion      s      p      d    tot
    1  0.000  0.045  0.000  0.045
    2  0.000  0.384  0.006  0.389
tot    0.000  0.429  0.006  0.435
 
band     3 # energy    4.37353723 # occ.  2.00000000
 
ion      s      p      d    tot
    1  0.000  0.045  0.000  0.045
    2  0.000  0.384  0.006  0.389
tot    0.000  0.429  0.006  0.435
 
band     4 # energy    4.37353749 # occ.  2.00000000
 
ion      s      p      d    tot
    1  0.000  0.045  0.000  0.045
    2  0.000  0.384  0.006  0.389
tot    0.000  0.429  0.006  0.435
 
band     5 # energy    5.62851305 # occ.  0.00000000
 
ion      s      p      d    tot
    1  0.263  0.000  0.000  0.263
    2  0.337  0.000  0.000  0.337
tot    0.600  0.000  0.000  0.600
 
band     6 # energy    7.44929753 # occ.  0.00000000
 
ion      s      p      d    tot
    1  0.000  0.179  0.000  0.179
    2  0.000  0.034  0.052  0.086
tot    0.000  0.213  0.052  0.265
 
band     7 # energy    7.44929753 # occ.  0.00000000
 
ion      s      p      d    tot
    1  0.000  0.179  0.000  0.179
    2  0.000  0.034  0.052  0.086
tot    0.000  0.213  0.052  0.265
 
band     8 # energy    7.44929787 # occ.  0.00000000
 
ion      s      p      d    tot
    1  0.000  0.179  0.000  0.179
    2  0.000  0.034  0.052  0.086
tot    0.000  0.213  0.052  0.265
 

 k-point     2 :    0.12500000 0.00000000-0.00000000     weight = 0.01562500

band     1 # energy   -5.96145870 # occ.  2.00000000
 
ion      s      p      d    tot
    1  0.071  0.001  0.000  0.072
    2  0.404  0.001  0.000  0.405
tot    0.475  0.002  0.000  0.477
 
band     2 # energy    2.93098992 # occ.  2.00000000
 
ion      s      p      d    tot
    1  0.075  0.037  0.000  0.111
    2  0.094  0.229  0.005  0.327
tot    0.169  0.265  0.005  0.439
 
band     3 # energy    4.19502816 # occ.  2.00000000
 
ion      s      p      d    tot
    1  0.000  0.054  0.000  0.054
    2  0.000  0.364  0.006  0.370
tot    0.000  0.419  0.006  0.424
 
band     4 # energy    4.19502840 # occ.  2.00000000
 
ion      s      p      d    tot
    1  0.000  0.054  0.000  0.054
    2  0.000  0.364  0.006  0.370
tot    0.000  0.419  0.006  0.424
 
band     5 # energy    6.25046494 # occ.  0.00000000
 
ion      s      p      d    tot
    1  0.179  0.038  0.000  0.217
    2  0.183  0.074  0.010  0.267
tot    0.362  0.112  0.010  0.484
 
band     6 # energy    7.72329935 # occ.  0.00000000
 
ion      s      p      d    tot
    1  0.000  0.170  0.000  0.170
    2  0.000  0.054  0.051  0.106
tot    0.000  0.224  0.051  0.276
 
band     7 # energy    7.72329964 # occ.  0.00000000
 
ion      s      p      d    tot
    1  0.000  0.170  0.000  0.170
    2  0.000  0.054  0.051  0.106
tot    0.000  0.224  0.051  0.276
 
band     8 # energy    8.01820655 # occ.  0.00000000
 
ion      s      p      d    tot
    1  0.037  0.117  0.000  0.155
    2  0.057  0.106  0.037  0.200
tot    0.095  0.223  0.037  0.355
 

 k-point     3 :    0.25000000 0.00000000-0.00000000     weight = 0.01562500

band     1 # energy   -5.58139577 # occ.  2.00000000
 
ion      s      p      d    tot
    1  0.063  0.004  0.000  0.067
    2  0.424  0.003  0.000  0.427
tot    0.486  0.007  0.000  0.493
 
band     2 # energy    1.12983325 # occ.  2.00000000
 
ion      s      p      d    tot
    1  0.097  0.033  0.000  0.130
    2  0.091  0.177  0.003  0.271
tot    0.188  0.209  0.003  0.401
 
band     3 # energy    3.85841127 # occ.  2.00000000
 
ion      s      p      d    tot
    1  0.000  0.067  0.000  0.067
    2  0.000  0.339  0.005  0.345
tot    0.000  0.407  0.005  0.412
 
band     4 # energy    3.85841152 # occ.  2.00000000
 
ion      s      p      d    tot
    1  0.000  0.067  0.000  0.067
    2  0.000  0.339  0.005  0.345
tot    0.000  0.407  0.005  0.412
 
band     5 # energy    6.00331904 # occ.  0.00000000
 
ion      s      p      d    tot
    1  0.162  0.043  0.000  0.205
    2  0.134  0.041  0.021  0.196
tot    0.296  0.084  0.021  0.401
 
band     6 # energy    8.11703136 # occ.  0.00000000
 
ion      s      p      d    tot
    1  0.000  0.145  0.000  0.145
    2  0.000  0.069  0.053  0.122
tot    0.000  0.214  0.053  0.267
 
band     7 # energy    8.11703161 # occ.  0.00000000
 
ion      s      p      d    tot
    1  0.000  0.145  0.000  0.145
    2  0.000  0.069  0.053  0.122
tot    0.000  0.214  0.053  0.267
 
band     8 # energy    9.75549724 # occ.  0.00000000
 
ion      s      p      d    tot
    1  0.062  0.082  0.000  0.143
    2  0.077  0.180  0.021  0.277
tot    0.138  0.261  0.021  0.420
 

 k-point     4 :    0.37500000 0.00000000-0.00000000     weight = 0.01562500

band     1 # energy   -5.07913937 # occ.  2.00000000
 
ion      s      p      d    tot
    1  0.048  0.008  0.000  0.056
    2  0.464  0.003  0.000  0.467
tot    0.512  0.011  0.000  0.523
 
band     2 # energy   -0.28095765 # occ.  2.00000000
 
ion      s      p      d    tot
    1  0.117  0.027  0.000  0.144
    2  0.055  0.155  0.002  0.212
tot    0.173  0.182  0.002  0.357
 
band     3 # energy    3.59786411 # occ.  2.00000000
 
ion      s      p      d    tot
    1  0.000  0.075  0.000  0.075
    2  0.000  0.327  0.004  0.331
tot    0.000  0.402  0.004  0.406
 
band     4 # energy    3.59786436 # occ.  2.00000000
 
ion      s      p      d    tot
    1  0.000  0.075  0.000  0.075
    2  0.000  0.327  0.004  0.331
tot    0.000  0.402  0.004  0.406
 
band     5 # energy    5.70336636 # occ.  0.00000000
 
ion      s      p      d    tot
    1  0.170  0.030  0.000  0.199
    2  0.134  0.031  0.023  0.188
tot    0.304  0.061  0.023  0.387
 
band     6 # energy    8.14742482 # occ.  0.00000000
 
ion      s      p      d    tot
    1  0.000  0.114  0.000  0.114
    2  0.000  0.057  0.058  0.115
tot    0.000  0.171  0.058  0.229
 
band     7 # energy    8.14742501 # occ.  0.00000000
 
ion      s      p      d    tot
    1  0.000  0.114  0.000  0.114
    2  0.000  0.057  0.058  0.115
tot    0.000  0.171  0.058  0.229
 
band     8 # energy   10.99693585 # occ.  0.00000000
 
ion      s      p      d    tot
    1  0.001  0.040  0.000  0.041
    2  0.011  0.114  0.006  0.131
tot    0.012  0.154  0.006  0.172
 

 k-point     5 :    0.50000000 0.00000000-0.00000000     weight = 0.00781250

band     1 # energy   -4.80263762 # occ.  2.00000000
 
ion      s      p      d    tot
    1  0.036  0.011  0.000  0.047
    2  0.498  0.001  0.000  0.499
tot    0.534  0.012  0.000  0.546
 
band     2 # energy   -0.86699928 # occ.  2.00000000
 
ion      s      p      d    tot
    1  0.130  0.024  0.000  0.154
    2  0.022  0.151  0.001  0.175
tot    0.153  0.175  0.001  0.329
 
band     3 # energy    3.50416769 # occ.  2.00000000
 
ion      s      p      d    tot
    1  0.000  0.077  0.000  0.077
    2  0.000  0.324  0.004  0.328
tot    0.000  0.401  0.004  0.405
 
band     4 # energy    3.50416794 # occ.  2.00000000
 
ion      s      p      d    tot
    1  0.000  0.077  0.000  0.077
    2  0.000  0.324  0.004  0.328
tot    0.000  0.401  0.004  0.405
 
band     5 # energy    5.59379428 # occ.  0.00000000
 
ion      s      p      d    tot
    1  0.174  0.025  0.000  0.198
    2  0.136  0.028  0.023  0.187
tot    0.309  0.053  0.023  0.385
 
band     6 # energy    8.09100737 # occ.  0.00000000
 
ion      s      p      d    tot
    1  0.000  0.103  0.000  0.103
    2  0.000  0.051  0.060  0.111
tot    0.000  0.154  0.060  0.214
 
band     7 # energy    8.09100753 # occ.  0.00000000
 
ion      s      p      d    tot
    1  0.000  0.103  0.000  0.103
    2  0.000  0.051  0.060  0.111
tot    0.000  0.154  0.060  0.214
 
band     8 # energy   10.93110999 # occ.  0.00000000
 
ion      s      p      d    tot
    1  0.003  0.022  0.000  0.025
    2  0.007  0.060  0.008  0.075
tot    0.010  0.082  0.008  0.100
 

 k-point     6 :    0.12500000 0.12500000 0.00000000     weight = 0.01171875

band     1 # energy   -5.91563261 # occ.  2.00000000
 
ion      s      p      d    tot
    1  0.070  0.001  0.000  0.072
    2  0.406  0.001  0.000  0.407
tot    0.476  0.003  0.000  0.479
 
band     2 # energy    2.94273440 # occ.  2.00000000
 
ion      s      p      d    tot
    1  0.099  0.026  0.000  0.125
    2  0.124  0.216  0.004  0.344
tot    0.223  0.242  0.004  0.469
 
band     3 # energy    3.85901610 # occ.  2.00000000
 
ion      s      p      d    tot
    1  0.000  0.063  0.000  0.063
    2  0.000  0.332  0.006  0.338
tot    0.000  0.395  0.006  0.401
 
band     4 # energy    3.85901627 # occ.  2.00000000
 
ion      s      p      d    tot
    1  0.000  0.063  0.000  0.063
    2  0.000  0.332  0.006  0.338
tot    0.000  0.395  0.006  0.401
 
band     5 # energy    6.73802782 # occ.  0.00000000
 
ion      s      p      d    tot
    1  0.152  0.026  0.000  0.179
    2  0.043  0.154  0.021  0.217
tot    0.195  0.180  0.021  0.396
 
band     6 # energy    7.20281066 # occ.  0.00000000
 
ion      s      p      d    tot
    1  0.042  0.138  0.000  0.180
    2  0.158  0.037  0.025  0.220
tot    0.199  0.175  0.025  0.399
 
band     7 # energy    8.22617430 # occ.  0.00000000
 
ion      s      p      d    tot
    1  0.000  0.161  0.000  0.161
    2  0.000  0.087  0.053  0.140
tot    0.000  0.249  0.053  0.302
 
band     8 # energy    8.22617453 # occ.  0.00000000
 
ion      s      p      d    tot
    1  0.000  0.161  0.000  0.161
    2  0.000  0.087  0.053  0.140
tot    0.000  0.249  0.053  0.302
 

 k-point     7 :    0.25000000 0.12500000 0.00000000     weight = 0.04687500

band     1 # energy   -5.61411741 # occ.  2.00000000
 
ion      s      p      d    tot
    1  0.063  0.004  0.000  0.067
    2  0.421  0.003  0.000  0.424
tot    0.484  0.007  0.000  0.491
 
band     2 # energy    1.55924437 # occ.  2.00000000
 
ion      s      p      d    tot
    1  0.108  0.028  0.000  0.136
    2  0.111  0.180  0.004  0.295
tot    0.220  0.208  0.004  0.431
 
band     3 # energy    3.47930847 # occ.  2.00000000
 
ion      s      p      d    tot
    1  0.000  0.072  0.000  0.072
    2  0.000  0.310  0.005  0.316
tot    0.000  0.382  0.005  0.387
 
band     4 # energy    3.48420374 # occ.  2.00000000
 
ion      s      p      d    tot
    1  0.017  0.064  0.000  0.081
    2  0.013  0.293  0.006  0.312
tot    0.029  0.357  0.006  0.392
 
band     5 # energy    6.72912907 # occ.  0.00000000
 
ion      s      p      d    tot
    1  0.110  0.045  0.000  0.155
    2  0.033  0.124  0.028  0.185
tot    0.143  0.169  0.028  0.340
 
band     6 # energy    7.48466443 # occ.  0.00000000
 
ion      s      p      d    tot
    1  0.052  0.128  0.000  0.180
    2  0.101  0.060  0.027  0.188
tot    0.152  0.188  0.027  0.368
 
band     7 # energy    8.81697273 # occ.  0.00000000
 
ion      s      p      d    tot
    1  0.000  0.146  0.000  0.146
    2  0.000  0.104  0.056  0.160
tot    0.000  0.250  0.056  0.306
 
band     8 # energy    8.98111553 # occ.  0.00000000
 
ion      s      p      d    tot
    1  0.012  0.087  0.000  0.099
    2  0.013  0.096  0.054  0.163
tot    0.025  0.182  0.054  0.262
 

 k-point     8 :    0.37500000 0.12500000-0.00000000     weight = 0.04687500

band     1 # energy   -5.13783115 # occ.  2.00000000
 
ion      s      p      d    tot
    1  0.050  0.008  0.000  0.058
    2  0.456  0.004  0.000  0.460
tot    0.505  0.012  0.000  0.517
 
band     2 # energy    0.12485680 # occ.  2.00000000
 
ion      s      p      d    tot
    1  0.123  0.025  0.000  0.148
    2  0.075  0.157  0.003  0.234
tot    0.198  0.182  0.003  0.382
 
band     3 # energy    3.01757220 # occ.  2.00000000
 
ion      s      p      d    tot
    1  0.029  0.063  0.000  0.091
    2  0.020  0.263  0.006  0.288
tot    0.049  0.326  0.006  0.380
 
band     4 # energy    3.25775808 # occ.  2.00000000
 
ion      s      p      d    tot
    1  0.000  0.077  0.000  0.077
    2  0.000  0.304  0.004  0.308
tot    0.000  0.381  0.004  0.385
 
band     5 # energy    6.53752276 # occ.  0.00000000
 
ion      s      p      d    tot
    1  0.116  0.042  0.000  0.158
    2  0.075  0.106  0.025  0.205
tot    0.191  0.147  0.025  0.363
 
band     6 # energy    7.88339516 # occ.  0.00000000
 
ion      s      p      d    tot
    1  0.026  0.113  0.000  0.139
    2  0.033  0.065  0.042  0.140
tot    0.059  0.178  0.042  0.279
 
band     7 # energy    8.88652958 # occ.  0.00000000
 
ion      s      p      d    tot
    1  0.000  0.117  0.000  0.117
    2  0.000  0.087  0.060  0.147
tot    0.000  0.204  0.060  0.264
 
band     8 # energy    9.53494566 # occ.  0.00000000
 
ion      s      p      d    tot
    1  0.016  0.056  0.000  0.072
    2  0.015  0.083  0.057  0.155
tot    0.031  0.139  0.057  0.227
 

 k-point     9 :    0.50000000 0.12500000 0.00000000     weight = 0.04687500

band     1 # energy   -4.74339718 # occ.  2.00000000
 
ion      s      p      d    tot
    1  0.034  0.012  0.000  0.045
    2  0.501  0.002  0.000  0.503
tot    0.535  0.013  0.000  0.549
 
band     2 # energy   -0.73610474 # occ.  2.00000000
 
ion      s      p      d    tot
    1  0.140  0.022  0.000  0.162
    2  0.028  0.149  0.002  0.179
tot    0.168  0.171  0.002  0.341
 
band     3 # energy    2.67094628 # occ.  2.00000000
 
ion      s      p      d    tot
    1  0.031  0.063  0.000  0.094
    2  0.022  0.250  0.005  0.276
tot    0.053  0.312  0.005  0.370
 
band     4 # energy    3.25745337 # occ.  2.00000000
 
ion      s      p      d    tot
    1  0.000  0.079  0.000  0.079
    2  0.000  0.307  0.004  0.311
tot    0.000  0.386  0.004  0.390
 
band     5 # energy    6.39384713 # occ.  0.00000000
 
ion      s      p      d    tot
    1  0.125  0.040  0.000  0.165
    2  0.088  0.092  0.025  0.204
tot    0.213  0.131  0.025  0.369
 
band     6 # energy    7.95772681 # occ.  0.00000000
 
ion      s      p      d    tot
    1  0.013  0.088  0.000  0.101
    2  0.018  0.060  0.050  0.127
tot    0.031  0.148  0.050  0.228
 
band     7 # energy    8.64348172 # occ.  0.00000000
 
ion      s      p      d    tot
    1  0.000  0.102  0.000  0.102
    2  0.000  0.070  0.061  0.131
tot    0.000  0.172  0.061  0.233
 
band     8 # energy   10.89691024 # occ.  0.00000000
 
ion      s      p      d    tot
    1  0.009  0.075  0.000  0.084
    2  0.005  0.124  0.042  0.171
tot    0.014  0.199  0.042  0.255
 

 k-point    10 :   -0.37500000 0.12500000 0.00000000     weight = 0.04687500

band     1 # energy   -4.84127253 # occ.  2.00000000
 
ion      s      p      d    tot
    1  0.038  0.011  0.000  0.049
    2  0.488  0.003  0.000  0.491
tot    0.526  0.013  0.000  0.540
 
band     2 # energy   -0.53884248 # occ.  2.00000000
 
ion      s      p      d    tot
    1  0.135  0.023  0.000  0.158
    2  0.041  0.150  0.002  0.193
tot    0.176  0.173  0.002  0.352
 
band     3 # energy    2.55451550 # occ.  2.00000000
 
ion      s      p      d    tot
    1  0.028  0.064  0.000  0.092
    2  0.019  0.247  0.004  0.270
tot    0.047  0.311  0.004  0.362
 
band     4 # energy    3.47195907 # occ.  2.00000000
 
ion      s      p      d    tot
    1  0.000  0.077  0.000  0.077
    2  0.000  0.319  0.004  0.323
tot    0.000  0.397  0.004  0.401
 
band     5 # energy    6.44157105 # occ.  0.00000000
 
ion      s      p      d    tot
    1  0.132  0.042  0.000  0.174
    2  0.095  0.089  0.024  0.207
tot    0.227  0.130  0.024  0.381
 
band     6 # energy    8.11614484 # occ.  0.00000000
 
ion      s      p      d    tot
    1  0.007  0.086  0.000  0.094
    2  0.013  0.062  0.052  0.127
tot    0.021  0.149  0.052  0.221
 
band     7 # energy    8.44576812 # occ.  0.00000000
 
ion      s      p      d    tot
    1  0.000  0.110  0.000  0.110
    2  0.000  0.065  0.058  0.123
tot    0.000  0.175  0.058  0.233
 
band     8 # energy   11.11339112 # occ.  0.00000000
 
ion      s      p      d    tot
    1  0.016  0.077  0.000  0.093
    2  0.011  0.165  0.029  0.206
tot    0.027  0.242  0.029  0.299
 

 k-point    11 :   -0.25000000 0.12500000 0.00000000     weight = 0.04687500

band     1 # energy   -5.30964429 # occ.  2.00000000
 
ion      s      p      d    tot
    1  0.055  0.006  0.000  0.062
    2  0.441  0.004  0.000  0.446
tot    0.497  0.010  0.000  0.507
 
band     2 # energy    0.56873893 # occ.  2.00000000
 
ion      s      p      d    tot
    1  0.117  0.027  0.000  0.144
    2  0.089  0.162  0.003  0.255
tot    0.206  0.189  0.003  0.399
 
band     3 # energy    2.72792756 # occ.  2.00000000
 
ion      s      p      d    tot
    1  0.020  0.066  0.000  0.086
    2  0.010  0.255  0.005  0.270
tot    0.031  0.321  0.005  0.356
 
band     4 # energy    3.83503742 # occ.  2.00000000
 
ion      s      p      d    tot
    1  0.000  0.071  0.000  0.071
    2  0.000  0.341  0.005  0.346
tot    0.000  0.411  0.005  0.416
 
band     5 # energy    6.65639031 # occ.  0.00000000
 
ion      s      p      d    tot
    1  0.137  0.049  0.000  0.186
    2  0.100  0.096  0.021  0.217
tot    0.237  0.144  0.021  0.402
 
band     6 # energy    8.22795793 # occ.  0.00000000
 
ion      s      p      d    tot
    1  0.000  0.141  0.000  0.141
    2  0.000  0.067  0.050  0.118
tot    0.000  0.208  0.050  0.259
 
band     7 # energy    8.29958830 # occ.  0.00000000
 
ion      s      p      d    tot
    1  0.009  0.106  0.000  0.115
    2  0.018  0.074  0.051  0.144
tot    0.027  0.180  0.051  0.259
 
band     8 # energy    9.73901799 # occ.  0.00000000
 
ion      s      p      d    tot
    1  0.040  0.069  0.000  0.108
    2  0.037  0.143  0.037  0.217
tot    0.076  0.212  0.037  0.325
 

 k-point    12 :   -0.12500000 0.12500000 0.00000000     weight = 0.02343750

band     1 # energy   -5.74270136 # occ.  2.00000000
 
ion      s      p      d    tot
    1  0.066  0.003  0.000  0.069
    2  0.414  0.002  0.000  0.417
tot    0.481  0.005  0.000  0.486
 
band     2 # energy    1.96795501 # occ.  2.00000000
 
ion      s      p      d    tot
    1  0.100  0.030  0.000  0.130
    2  0.112  0.191  0.004  0.308
tot    0.212  0.222  0.004  0.438
 
band     3 # energy    3.30578028 # occ.  2.00000000
 
ion      s      p      d    tot
    1  0.009  0.067  0.000  0.076
    2  0.001  0.285  0.006  0.292
tot    0.010  0.352  0.006  0.368
 
band     4 # energy    4.17492787 # occ.  2.00000000
 
ion      s      p      d    tot
    1  0.000  0.059  0.000  0.059
    2  0.000  0.367  0.006  0.372
tot    0.000  0.426  0.006  0.431
 
band     5 # energy    6.74851721 # occ.  0.00000000
 
ion      s      p      d    tot
    1  0.160  0.045  0.000  0.205
    2  0.125  0.115  0.014  0.254
tot    0.285  0.160  0.014  0.459
 
band     6 # energy    7.81330583 # occ.  0.00000000
 
ion      s      p      d    tot
    1  0.000  0.166  0.000  0.166
    2  0.000  0.052  0.049  0.102
tot    0.000  0.218  0.049  0.267
 
band     7 # energy    7.82895895 # occ.  0.00000000
 
ion      s      p      d    tot
    1  0.015  0.123  0.000  0.138
    2  0.034  0.069  0.046  0.150
tot    0.049  0.193  0.046  0.288
 
band     8 # energy    9.00563472 # occ.  0.00000000
 
ion      s      p      d    tot
    1  0.027  0.111  0.000  0.138
    2  0.037  0.140  0.041  0.217
tot    0.064  0.251  0.041  0.355
 

 k-point    13 :    0.25000000 0.25000000 0.00000000     weight = 0.01171875

band     1 # energy   -5.39909800 # occ.  2.00000000
 
ion      s      p      d    tot
    1  0.057  0.006  0.000  0.063
    2  0.433  0.004  0.000  0.437
tot    0.490  0.010  0.000  0.501
 
band     2 # energy    1.18942495 # occ.  2.00000000
 
ion      s      p      d    tot
    1  0.138  0.017  0.000  0.155
    2  0.126  0.165  0.004  0.295
tot    0.264  0.181  0.004  0.450
 
band     3 # energy    3.05098417 # occ.  2.00000000
 
ion      s      p      d    tot
    1  0.000  0.077  0.000  0.077
    2  0.000  0.290  0.004  0.294
tot    0.000  0.367  0.004  0.371
 
band     4 # energy    3.05098434 # occ.  2.00000000
 
ion      s      p      d    tot
    1  0.000  0.077  0.000  0.077
    2  0.000  0.290  0.004  0.294
tot    0.000  0.367  0.004  0.371
 
band     5 # energy    6.11464421 # occ.  0.00000000
 
ion      s      p      d    tot
    1  0.075  0.066  0.000  0.140
    2  0.009  0.049  0.037  0.094
tot    0.083  0.114  0.037  0.234
 
band     6 # energy    7.37404184 # occ.  0.00000000
 
ion      s      p      d    tot
    1  0.066  0.046  0.000  0.111
    2  0.074  0.087  0.028  0.189
tot    0.139  0.133  0.028  0.300
 
band     7 # energy    9.79291927 # occ.  0.00000000
 
ion      s      p      d    tot
    1  0.000  0.147  0.000  0.147
    2  0.000  0.132  0.058  0.190
tot    0.000  0.279  0.058  0.337
 
band     8 # energy    9.79291950 # occ.  0.00000000
 
ion      s      p      d    tot
    1  0.000  0.147  0.000  0.147
    2  0.000  0.132  0.058  0.190
tot    0.000  0.279  0.058  0.337
 

 k-point    14 :    0.37500000 0.25000000 0.00000000     weight = 0.04687500

band     1 # energy   -4.99127650 # occ.  2.00000000
 
ion      s      p      d    tot
    1  0.044  0.010  0.000  0.054
    2  0.465  0.005  0.000  0.470
tot    0.509  0.015  0.000  0.524
 
band     2 # energy    0.22948473 # occ.  2.00000000
 
ion      s      p      d    tot
    1  0.155  0.014  0.000  0.170
    2  0.094  0.150  0.003  0.248
tot    0.249  0.165  0.003  0.417
 
band     3 # energy    2.47675128 # occ.  2.00000000
 
ion      s      p      d    tot
    1  0.012  0.072  0.000  0.084
    2  0.005  0.254  0.004  0.263
tot    0.016  0.326  0.004  0.346
 
band     4 # energy    2.79568980 # occ.  2.00000000
 
ion      s      p      d    tot
    1  0.000  0.080  0.000  0.080
    2  0.000  0.282  0.003  0.286
tot    0.000  0.363  0.003  0.366
 
band     5 # energy    6.22397517 # occ.  0.00000000
 
ion      s      p      d    tot
    1  0.061  0.057  0.000  0.118
    2  0.021  0.058  0.036  0.115
tot    0.082  0.115  0.036  0.233
 
band     6 # energy    7.31615575 # occ.  0.00000000
 
ion      s      p      d    tot
    1  0.062  0.040  0.000  0.102
    2  0.045  0.084  0.034  0.164
tot    0.106  0.125  0.034  0.265
 
band     7 # energy    9.74092275 # occ.  0.00000000
 
ion      s      p      d    tot
    1  0.024  0.104  0.000  0.129
    2  0.035  0.109  0.052  0.195
tot    0.059  0.213  0.052  0.324
 
band     8 # energy   10.24292169 # occ.  0.00000000
 
ion      s      p      d    tot
    1  0.000  0.125  0.000  0.125
    2  0.000  0.123  0.063  0.186
tot    0.000  0.249  0.063  0.311
 

 k-point    15 :    0.50000000 0.25000000 0.00000000     weight = 0.04687500

band     1 # energy   -4.57529491 # occ.  2.00000000
 
ion      s      p      d    tot
    1  0.024  0.014  0.000  0.039
    2  0.516  0.003  0.000  0.519
tot    0.540  0.017  0.000  0.558
 
band     2 # energy   -0.55122554 # occ.  2.00000000
 
ion      s      p      d    tot
    1  0.176  0.012  0.000  0.188
    2  0.039  0.143  0.003  0.185
tot    0.215  0.155  0.003  0.373
 
band     3 # energy    1.80843403 # occ.  2.00000000
 
ion      s      p      d    tot
    1  0.019  0.064  0.000  0.083
    2  0.010  0.227  0.003  0.240
tot    0.029  0.291  0.003  0.323
 
band     4 # energy    2.78705426 # occ.  2.00000000
 
ion      s      p      d    tot
    1  0.000  0.082  0.000  0.082
    2  0.000  0.284  0.003  0.287
tot    0.000  0.366  0.003  0.369
 
band     5 # energy    6.31067834 # occ.  0.00000000
 
ion      s      p      d    tot
    1  0.063  0.045  0.000  0.108
    2  0.037  0.052  0.035  0.124
tot    0.100  0.097  0.035  0.232
 
band     6 # energy    8.54485144 # occ.  0.00000000
 
ion      s      p      d    tot
    1  0.064  0.045  0.000  0.109
    2  0.024  0.147  0.037  0.208
tot    0.088  0.193  0.037  0.317
 
band     7 # energy    9.47135797 # occ.  0.00000000
 
ion      s      p      d    tot
    1  0.019  0.102  0.000  0.121
    2  0.042  0.071  0.051  0.164
tot    0.061  0.173  0.051  0.285
 
band     8 # energy   10.00899467 # occ.  0.00000000
 
ion      s      p      d    tot
    1  0.000  0.105  0.000  0.105
    2  0.000  0.101  0.065  0.165
tot    0.000  0.206  0.065  0.270
 

 k-point    16 :   -0.37500000 0.25000000 0.00000000     weight = 0.04687500

band     1 # energy   -4.51488463 # occ.  2.00000000
 
ion      s      p      d    tot
    1  0.021  0.015  0.000  0.036
    2  0.527  0.002  0.000  0.529
tot    0.548  0.017  0.000  0.565
 
band     2 # energy   -0.63556939 # occ.  2.00000000
 
ion      s      p      d    tot
    1  0.181  0.012  0.000  0.194
    2  0.026  0.141  0.004  0.171
tot    0.208  0.153  0.004  0.365
 
band     3 # energy    1.46325875 # occ.  2.00000000
 
ion      s      p      d    tot
    1  0.017  0.062  0.000  0.078
    2  0.009  0.219  0.002  0.231
tot    0.026  0.281  0.002  0.309
 
band     4 # energy    3.02504463 # occ.  2.00000000
 
ion      s      p      d    tot
    1  0.000  0.081  0.000  0.081
    2  0.000  0.295  0.003  0.298
tot    0.000  0.376  0.003  0.379
 
band     5 # energy    6.50562941 # occ.  0.00000000
 
ion      s      p      d    tot
    1  0.073  0.045  0.000  0.118
    2  0.045  0.054  0.034  0.134
tot    0.118  0.100  0.034  0.252
 
band     6 # energy    9.20923889 # occ.  0.00000000
 
ion      s      p      d    tot
    1  0.050  0.071  0.000  0.121
    2  0.044  0.139  0.037  0.220
tot    0.094  0.210  0.037  0.341
 
band     7 # energy    9.61612406 # occ.  0.00000000
 
ion      s      p      d    tot
    1  0.000  0.112  0.000  0.112
    2  0.000  0.099  0.057  0.156
tot    0.000  0.211  0.057  0.268
 
band     8 # energy   10.58787922 # occ.  0.00000000
 
ion      s      p      d    tot
    1  0.027  0.074  0.000  0.102
    2  0.012  0.140  0.050  0.202
tot    0.040  0.214  0.050  0.304
 

 k-point    17 :   -0.25000000 0.25000000 0.00000000     weight = 0.02343750

band     1 # energy   -4.87801158 # occ.  2.00000000
 
ion      s      p      d    tot
    1  0.040  0.011  0.000  0.050
    2  0.479  0.004  0.000  0.484
tot    0.519  0.015  0.000  0.534
 
band     2 # energy   -0.05395099 # occ.  2.00000000
 
ion      s      p      d    tot
    1  0.157  0.018  0.000  0.174
    2  0.073  0.146  0.004  0.222
tot    0.230  0.163  0.004  0.397
 
band     3 # energy    1.69457346 # occ.  2.00000000
 
ion      s      p      d    tot
    1  0.015  0.064  0.000  0.079
    2  0.003  0.225  0.003  0.231
tot    0.018  0.289  0.003  0.310
 
band     4 # energy    3.44096842 # occ.  2.00000000
 
ion      s      p      d    tot
    1  0.000  0.078  0.000  0.078
    2  0.000  0.315  0.004  0.319
tot    0.000  0.393  0.004  0.397
 
band     5 # energy    6.84688275 # occ.  0.00000000
 
ion      s      p      d    tot
    1  0.093  0.052  0.000  0.146
    2  0.059  0.072  0.031  0.161
tot    0.152  0.124  0.031  0.307
 
band     6 # energy    8.99878783 # occ.  0.00000000
 
ion      s      p      d    tot
    1  0.000  0.136  0.000  0.136
    2  0.000  0.097  0.048  0.145
tot    0.000  0.233  0.048  0.281
 
band     7 # energy    9.17954641 # occ.  0.00000000
 
ion      s      p      d    tot
    1  0.008  0.105  0.000  0.112
    2  0.056  0.079  0.040  0.176
tot    0.064  0.184  0.040  0.288
 
band     8 # energy    9.48303248 # occ.  0.00000000
 
ion      s      p      d    tot
    1  0.073  0.042  0.000  0.115
    2  0.017  0.175  0.044  0.236
tot    0.090  0.217  0.044  0.350
 

 k-point    18 :    0.37500000 0.37500000 0.00000000     weight = 0.01171875

band     1 # energy   -4.68026081 # occ.  2.00000000
 
ion      s      p      d    tot
    1  0.029  0.014  0.000  0.043
    2  0.497  0.005  0.000  0.502
tot    0.526  0.018  0.000  0.545
 
band     2 # energy   -0.29256202 # occ.  2.00000000
 
ion      s      p      d    tot
    1  0.179  0.007  0.000  0.186
    2  0.069  0.144  0.003  0.216
tot    0.248  0.151  0.003  0.402
 
band     3 # energy    2.48296612 # occ.  2.00000000
 
ion      s      p      d    tot
    1  0.000  0.083  0.000  0.083
    2  0.000  0.273  0.002  0.275
tot    0.000  0.355  0.002  0.357
 
band     4 # energy    2.48296629 # occ.  2.00000000
 
ion      s      p      d    tot
    1  0.000  0.083  0.000  0.083
    2  0.000  0.273  0.002  0.275
tot    0.000  0.355  0.002  0.357
 
band     5 # energy    5.68293007 # occ.  0.00000000
 
ion      s      p      d    tot
    1  0.060  0.051  0.000  0.110
    2  0.026  0.032  0.035  0.093
tot    0.086  0.083  0.035  0.204
 
band     6 # energy    6.37435794 # occ.  0.00000000
 
ion      s      p      d    tot
    1  0.062  0.024  0.000  0.086
    2  0.033  0.054  0.037  0.125
tot    0.095  0.078  0.037  0.211
 
band     7 # energy   11.55627743 # occ.  0.00000000
 
ion      s      p      d    tot
    1  0.000  0.140  0.000  0.140
    2  0.000  0.161  0.056  0.217
tot    0.000  0.301  0.056  0.357
 
band     8 # energy   11.55627768 # occ.  0.00000000
 
ion      s      p      d    tot
    1  0.000  0.140  0.000  0.140
    2  0.000  0.161  0.056  0.217
tot    0.000  0.301  0.056  0.357
 

 k-point    19 :    0.50000000 0.37500000 0.00000000     weight = 0.04687500

band     1 # energy   -4.35673500 # occ.  2.00000000
 
ion      s      p      d    tot
    1  0.010  0.018  0.000  0.028
    2  0.546  0.002  0.000  0.547
tot    0.555  0.020  0.000  0.575
 
band     2 # energy   -0.77211259 # occ.  2.00000000
 
ion      s      p      d    tot
    1  0.205  0.003  0.000  0.207
    2  0.022  0.140  0.003  0.166
tot    0.226  0.143  0.003  0.373
 
band     3 # energy    1.91555502 # occ.  2.00000000
 
ion      s      p      d    tot
    1  0.004  0.075  0.000  0.079
    2  0.001  0.242  0.002  0.244
tot    0.004  0.317  0.002  0.323
 
band     4 # energy    2.41829343 # occ.  2.00000000
 
ion      s      p      d    tot
    1  0.000  0.083  0.000  0.083
    2  0.000  0.272  0.002  0.273
tot    0.000  0.355  0.002  0.357
 
band     5 # energy    5.87169970 # occ.  0.00000000
 
ion      s      p      d    tot
    1  0.048  0.044  0.000  0.091