<?xml version="1.0" encoding="ISO-8859-1"?>
<modeling>
 <generator>
  <i name="program" type="string">vasp </i>
  <i name="version" type="string">5.4.4.18Apr17-6-g9f103f2a35  </i>
  <i name="subversion" type="string">(build Apr 10 2018 17:34:00) complex            parallel </i>
  <i name="platform" type="string">LinuxIFC </i>
  <i name="date" type="string">2018 10 04 </i>
  <i name="time" type="string">08:05:26 </i>
 </generator>
 <incar>
  <i type="string" name="SYSTEM"> AlSb</i>
  <i type="string" name="PREC">accurate  ! calcululation level (change</i>
  <i type="string" name="ALGO"> NORMAL    ! A Davidson blocked iteratio</i>
  <i type="logical" name="ADDGRID"> T  </i>
  <i type="int" name="ISPIN">     1</i>
  <i name="AMIX">      0.20000000</i>
  <i name="BMIX">      0.00100000</i>
  <i type="int" name="NELM">   100</i>
  <i type="int" name="NELMDL">    -8</i>
  <i type="int" name="NELMIN">     6</i>
  <i type="int" name="IBRION">     2</i>
  <i name="EDIFF">      0.00000010</i>
  <i name="EDIFFG">     -0.00100000</i>
  <i type="int" name="NSW">   100</i>
  <i type="int" name="ISIF">     3</i>
  <i name="ENCUT">    460.00000000</i>
  <i name="POTIM">      0.50000000</i>
  <i type="int" name="NEDOS">    11</i>
  <i type="logical" name="LREAL"> F  </i>
  <i type="logical" name="LPLANE"> T  </i>
  <i type="int" name="ISMEAR">     0</i>
  <i name="SIGMA">      0.01000000</i>
  <i type="int" name="NWRITE">     1</i>
  <i type="int" name="LMAXMIX">     6</i>
  <i type="logical" name="LWAVE"> F  </i>
  <i type="logical" name="LCHARG"> F  </i>
  <i type="int" name="LORBIT">    10</i>
  <i type="logical" name="LASPH"> T  </i>
  <v type="int" name="KPOINT_BSE">    -1     0     0     0</v>
  <i type="int" name="NELM">   100</i>
  <i type="logical" name="LASPH"> T  </i>
 </incar>
 <structure name="primitive_cell" >
  <crystal>
   <varray name="basis" >
    <v>       0.00000000       3.11616693       3.11616693 </v>
    <v>       3.11616693       0.00000000       3.11616693 </v>
    <v>       3.11616693       3.11616693       0.00000000 </v>
   </varray>
   <i name="volume">     60.51905489 </i>
   <varray name="rec_basis" >
    <v>      -0.16045354       0.16045354       0.16045354 </v>
    <v>       0.16045354      -0.16045354       0.16045354 </v>
    <v>       0.16045354       0.16045354      -0.16045354 </v>
   </varray>
  </crystal>
  <varray name="positions" >
   <v>       0.00000000       0.00000000       0.00000000 </v>
   <v>       0.25000000       0.25000000       0.25000000 </v>
  </varray>
 </structure>
 <varray name="primitive_index" >
  <v type="int" >        1 </v>
  <v type="int" >        2 </v>
 </varray>
 <kpoints>
  <generation param="Auto">
   <i name="subdivisionlength">     30.00000000 </i>
   <v type="int" name="divisions">       8        8        8 </v>
   <v name="usershift">      0.00000000       0.00000000       0.00000000 </v>
   <v name="genvec1">      0.12500000       0.00000000      -0.00000000 </v>
   <v name="genvec2">      0.00000000       0.12500000       0.00000000 </v>
   <v name="genvec3">     -0.00000000      -0.00000000       0.12500000 </v>
   <v name="shift">      0.00000000       0.00000000       0.00000000 </v>
  </generation>
  <varray name="kpointlist" >
   <v>       0.00000000       0.00000000       0.00000000 </v>
   <v>       0.12500000       0.00000000      -0.00000000 </v>
   <v>       0.25000000       0.00000000      -0.00000000 </v>
   <v>       0.37500000       0.00000000      -0.00000000 </v>
   <v>       0.50000000       0.00000000      -0.00000000 </v>
   <v>       0.12500000       0.12500000       0.00000000 </v>
   <v>       0.25000000       0.12500000       0.00000000 </v>
   <v>       0.37500000       0.12500000      -0.00000000 </v>
   <v>       0.50000000       0.12500000       0.00000000 </v>
   <v>      -0.37500000       0.12500000       0.00000000 </v>
   <v>      -0.25000000       0.12500000       0.00000000 </v>
   <v>      -0.12500000       0.12500000       0.00000000 </v>
   <v>       0.25000000       0.25000000       0.00000000 </v>
   <v>       0.37500000       0.25000000       0.00000000 </v>
   <v>       0.50000000       0.25000000       0.00000000 </v>
   <v>      -0.37500000       0.25000000       0.00000000 </v>
   <v>      -0.25000000       0.25000000       0.00000000 </v>
   <v>       0.37500000       0.37500000       0.00000000 </v>
   <v>       0.50000000       0.37500000       0.00000000 </v>
   <v>      -0.37500000       0.37500000       0.00000000 </v>
   <v>       0.50000000       0.50000000       0.00000000 </v>
   <v>       0.37500000       0.25000000       0.12500000 </v>
   <v>       0.50000000       0.25000000       0.12500000 </v>
   <v>      -0.37500000       0.25000000       0.12500000 </v>
   <v>       0.50000000       0.37500000       0.12500000 </v>
   <v>      -0.37500000       0.37500000       0.12500000 </v>
   <v>      -0.25000000       0.37500000       0.12500000 </v>
   <v>      -0.37500000       0.50000000       0.12500000 </v>
   <v>      -0.25000000       0.50000000       0.25000000 </v>
  </varray>
  <varray name="weights" >
   <v>       0.00195312 </v>
   <v>       0.01562500 </v>
   <v>       0.01562500 </v>
   <v>       0.01562500 </v>
   <v>       0.00781250 </v>
   <v>       0.01171875 </v>
   <v>       0.04687500 </v>
   <v>       0.04687500 </v>
   <v>       0.04687500 </v>
   <v>       0.04687500 </v>
   <v>       0.04687500 </v>
   <v>       0.02343750 </v>
   <v>       0.01171875 </v>
   <v>       0.04687500 </v>
   <v>       0.04687500 </v>
   <v>       0.04687500 </v>
   <v>       0.02343750 </v>
   <v>       0.01171875 </v>
   <v>       0.04687500 </v>
   <v>       0.02343750 </v>
   <v>       0.00585938 </v>
   <v>       0.04687500 </v>
   <v>       0.09375000 </v>
   <v>       0.04687500 </v>
   <v>       0.04687500 </v>
   <v>       0.09375000 </v>
   <v>       0.04687500 </v>
   <v>       0.02343750 </v>
   <v>       0.01171875 </v>
  </varray>
 </kpoints>
 <parameters>
  <separator name="general" >
   <i type="string" name="SYSTEM">AlSb</i>
   <i type="logical" name="LCOMPAT"> F  </i>
  </separator>
  <separator name="electronic" >
   <i type="string" name="PREC">accura</i>
   <i name="ENMAX">    460.00000000</i>
   <i name="ENAUG">    380.51300000</i>
   <i name="EDIFF">      0.00000010</i>
   <i type="int" name="IALGO">    38</i>
   <i type="int" name="IWAVPR">    11</i>
   <i type="int" name="NBANDS">     8</i>
   <i name="NELECT">      8.00000000</i>
   <i type="int" name="TURBO">     0</i>
   <i type="int" name="IRESTART">     0</i>
   <i type="int" name="NREBOOT">     0</i>
   <i type="int" name="NMIN">     0</i>
   <i name="EREF">      0.00000000</i>
   <separator name="electronic smearing" >
    <i type="int" name="ISMEAR">     0</i>
    <i name="SIGMA">      0.01000000</i>
    <i name="KSPACING">      0.50000000</i>
    <i type="logical" name="KGAMMA"> T  </i>
   </separator>
   <separator name="electronic projectors" >
    <i type="logical" name="LREAL"> F  </i>
    <v name="ROPT">      0.00000000      0.00000000</v>
    <i type="int" name="LMAXPAW">  -100</i>
    <i type="int" name="LMAXMIX">     6</i>
    <i type="logical" name="NLSPLINE"> F  </i>
   </separator>
   <separator name="electronic startup" >
    <i type="int" name="ISTART">     0</i>
    <i type="int" name="ICHARG">     2</i>
    <i type="int" name="INIWAV">     1</i>
   </separator>
   <separator name="electronic spin" >
    <i type="int" name="ISPIN">     1</i>
    <i type="logical" name="LNONCOLLINEAR"> F  </i>
    <v name="MAGMOM">      1.00000000      1.00000000</v>
    <i name="NUPDOWN">     -1.00000000</i>
    <i type="logical" name="LSORBIT"> F  </i>
    <v name="SAXIS">      0.00000000      0.00000000      1.00000000</v>
    <i type="logical" name="LSPIRAL"> F  </i>
    <v name="QSPIRAL">      0.00000000      0.00000000      0.00000000</v>
    <i type="logical" name="LZEROZ"> F  </i>
   </separator>
   <separator name="electronic exchange-correlation" >
    <i type="logical" name="LASPH"> T  </i>
    <i type="logical" name="LMETAGGA"> F  </i>
   </separator>
   <separator name="electronic convergence" >
    <i type="int" name="NELM">   100</i>
    <i type="int" name="NELMDL">    -8</i>
    <i type="int" name="NELMIN">     6</i>
    <i name="ENINI">    460.00000000</i>
    <separator name="electronic convergence detail" >
     <i type="logical" name="LDIAG"> T  </i>
     <i type="logical" name="LSUBROT"> F  </i>
     <i name="WEIMIN">      0.00100000</i>
     <i name="EBREAK">      0.00000000</i>
     <i name="DEPER">      0.30000000</i>
     <i type="int" name="NRMM">     4</i>
     <i name="TIME">      0.40000000</i>
    </separator>
   </separator>
   <separator name="electronic mixer" >
    <i name="AMIX">      0.20000000</i>
    <i name="BMIX">      0.00100000</i>
    <i name="AMIN">      0.10000000</i>
    <i name="AMIX_MAG">      0.80000000</i>
    <i name="BMIX_MAG">      0.00100000</i>
    <separator name="electronic mixer details" >
     <i type="int" name="IMIX">     4</i>
     <i type="logical" name="MIXFIRST"> F  </i>
     <i type="int" name="MAXMIX">   -45</i>
     <i name="WC">    100.00000000</i>
     <i type="int" name="INIMIX">     1</i>
     <i type="int" name="MIXPRE">     1</i>
     <i type="int" name="MREMOVE">     5</i>
    </separator>
   </separator>
   <separator name="electronic dipolcorrection" >
    <i type="logical" name="LDIPOL"> F  </i>
    <i type="logical" name="LMONO"> F  </i>
    <i type="int" name="IDIPOL">     0</i>
    <i name="EPSILON">      1.00000000</i>
    <v name="DIPOL">   -100.00000000   -100.00000000   -100.00000000</v>
    <i name="EFIELD">      0.00000000</i>
   </separator>
  </separator>
  <separator name="grids" >
   <i type="int" name="NGX">    32</i>
   <i type="int" name="NGY">    32</i>
   <i type="int" name="NGZ">    32</i>
   <i type="int" name="NGXF">    64</i>
   <i type="int" name="NGYF">    64</i>
   <i type="int" name="NGZF">    64</i>
   <i type="logical" name="ADDGRID"> T  </i>
  </separator>
  <separator name="ionic" >
   <i type="int" name="NSW">   100</i>
   <i type="int" name="IBRION">     2</i>
   <i type="int" name="MDALGO">     0</i>
   <i type="int" name="ISIF">     3</i>
   <i name="PSTRESS">      0.00000000</i>
   <i name="EDIFFG">     -0.00100000</i>
   <i type="int" name="NFREE">     1</i>
   <i name="POTIM">      0.50000000</i>
   <i name="SMASS">     -3.00000000</i>
   <i name="SCALEE">      1.00000000</i>
  </separator>
  <separator name="ionic md" >
   <i name="TEBEG">      0.00010000</i>
   <i name="TEEND">      0.00010000</i>
   <i type="int" name="NBLOCK">     1</i>
   <i type="int" name="KBLOCK">   100</i>
   <i type="int" name="NPACO">   256</i>
   <i name="APACO">     16.00000000</i>
  </separator>
  <separator name="symmetry" >
   <i type="int" name="ISYM">     2</i>
   <i name="SYMPREC">      0.00001000</i>
  </separator>
  <separator name="dos" >
   <i type="int" name="LORBIT">    10</i>
   <v name="RWIGS">     -1.00000000     -1.00000000</v>
   <i type="int" name="NEDOS">    11</i>
   <i name="EMIN">     10.00000000</i>
   <i name="EMAX">    -10.00000000</i>
   <i name="EFERMI">      0.00000000</i>
  </separator>
  <separator name="writing" >
   <i type="int" name="NWRITE">     1</i>
   <i type="logical" name="LWAVE"> F  </i>
   <i type="logical" name="LDOWNSAMPLE"> F  </i>
   <i type="logical" name="LCHARG"> F  </i>
   <i type="logical" name="LPARD"> F  </i>
   <i type="logical" name="LVTOT"> F  </i>
   <i type="logical" name="LVHAR"> F  </i>
   <i type="logical" name="LELF"> F  </i>
   <i type="logical" name="LOPTICS"> F  </i>
   <v name="STM">      0.00000000      0.00000000      0.00000000      0.00000000      0.00000000      0.00000000      0.00000000</v>
  </separator>
  <separator name="performance" >
   <i type="int" name="NPAR">     2</i>
   <i type="int" name="NSIM">     4</i>
   <i type="int" name="NBLK">    -1</i>
   <i type="logical" name="LPLANE"> T  </i>
   <i type="logical" name="LSCALAPACK"> T  </i>
   <i type="logical" name="LSCAAWARE"> F  </i>
   <i type="logical" name="LSCALU"> F  </i>
   <i type="logical" name="LASYNC"> F  </i>
   <i type="logical" name="LORBITALREAL"> F  </i>
  </separator>
  <separator name="miscellaneous" >
   <i type="int" name="IDIOT">     3</i>
   <i type="int" name="ISPECIAL">     0</i>
   <i type="logical" name="LMUSIC"> F  </i>
   <v name="POMASS">     26.98100000    121.75000000</v>
   <v name="DARWINR">      0.00000000      0.00000000</v>
   <v name="DARWINV">      1.00000000      1.00000000</v>
   <i type="logical" name="LCORR"> T  </i>
  </separator>
  <i type="logical" name="GGA_COMPAT"> T  </i>
  <i type="logical" name="LBERRY"> F  </i>
  <i type="int" name="ICORELEVEL">     0</i>
  <i type="logical" name="LDAU"> F  </i>
  <i type="int" name="I_CONSTRAINED_M">     0</i>
  <separator name="electronic exchange-correlation" >
   <i type="string" name="GGA">--</i>
   <i type="int" name="VOSKOWN">     0</i>
   <i type="logical" name="LHFCALC"> F  </i>
   <i type="string" name="PRECFOCK"></i>
   <i type="logical" name="LSYMGRAD"> F  </i>
   <i type="logical" name="LHFONE"> F  </i>
   <i type="logical" name="LRHFCALC"> F  </i>
   <i type="logical" name="LTHOMAS"> F  </i>
   <i type="logical" name="LMODELHF"> F  </i>
   <i name="ENCUT4O">     -1.00000000</i>
   <i type="int" name="EXXOEP">     0</i>
   <i type="int" name="FOURORBIT">     0</i>
   <i name="AEXX">      0.00000000</i>
   <i name="HFALPHA">      0.00000000</i>
   <i name="MCALPHA">      0.00000000</i>
   <i name="ALDAX">      1.00000000</i>
   <i name="AGGAX">      1.00000000</i>
   <i name="ALDAC">      1.00000000</i>
   <i name="AGGAC">      1.00000000</i>
   <i type="int" name="NKREDX">     1</i>
   <i type="int" name="NKREDY">     1</i>
   <i type="int" name="NKREDZ">     1</i>
   <i type="logical" name="SHIFTRED"> F  </i>
   <i type="logical" name="ODDONLY"> F  </i>
   <i type="logical" name="EVENONLY"> F  </i>
   <i type="int" name="LMAXFOCK">     0</i>
   <i type="int" name="NMAXFOCKAE">     0</i>
   <i type="logical" name="LFOCKAEDFT"> F  </i>
   <i name="HFSCREEN">      0.00000000</i>
   <i name="HFSCREENC">      0.00000000</i>
   <i type="int" name="NBANDSGWLOW">     0</i>
  </separator>
  <separator name="vdW DFT" >
   <i type="logical" name="LUSE_VDW"> F  </i>
   <i name="Zab_VDW">     -0.84910000</i>
   <i name="PARAM1">      0.12340000</i>
   <i name="PARAM2">      1.00000000</i>
   <i name="PARAM3">      0.00000000</i>
  </separator>
  <separator name="model GW" >
   <i type="int" name="MODEL_GW">     0</i>
   <i name="MODEL_EPS0">     18.15571647</i>
   <i name="MODEL_ALPHA">      1.00000000</i>
  </separator>
  <separator name="linear response parameters" >
   <i type="logical" name="LEPSILON"> F  </i>
   <i type="logical" name="LRPA"> F  </i>
   <i type="logical" name="LNABLA"> F  </i>
   <i type="logical" name="LVEL"> F  </i>
   <i type="int" name="KINTER">     0</i>
   <i name="CSHIFT">      0.10000000</i>
   <i name="OMEGAMAX">     -1.00000000</i>
   <i name="DEG_THRESHOLD">      0.00200000</i>
   <i name="RTIME">     -0.10000000</i>
   <i name="WPLASMAI">      0.00000000</i>
   <v name="DFIELD">      0.00000000      0.00000000      0.00000000</v>
   <v name="WPLASMA">      0.00000000      0.00000000      0.00000000      0.00000000      0.00000000      0.00000000      0.00000000      0.00000000      0.00000000</v>
  </separator>
  <separator name="orbital magnetization" >
   <i type="logical" name="NUCIND"> F  </i>
   <v name="MAGPOS">      0.00000000      0.00000000      0.00000000</v>
   <i type="logical" name="LNICSALL"> T  </i>
   <i type="logical" name="ORBITALMAG"> F  </i>
   <i type="logical" name="LMAGBLOCH"> F  </i>
   <i type="logical" name="LCHIMAG"> F  </i>
   <i type="logical" name="LGAUGE"> T  </i>
   <i type="int" name="MAGATOM">     0</i>
   <v name="MAGDIPOL">      0.00000000      0.00000000      0.00000000</v>
   <v name="AVECCONST">      0.00000000      0.00000000      0.00000000</v>
  </separator>
  <separator name="response functions" >
   <i type="logical" name="LADDER"> F  </i>
   <i type="logical" name="LRPAFORCE"> F  </i>
   <i type="logical" name="LFXC"> F  </i>
   <i type="logical" name="LHARTREE"> T  </i>
   <i type="int" name="IBSE">     0</i>
   <v type="int" name="KPOINT">    -1     0     0     0</v>
   <i type="logical" name="LTCTE"> F  </i>
   <i type="logical" name="LTETE"> F  </i>
   <i type="logical" name="LTRIPLET"> F  </i>
   <i type="logical" name="LFXCEPS"> F  </i>
   <i type="logical" name="LFXHEG"> F  </i>
   <i type="int" name="NATURALO">     2</i>
   <i type="logical" name="L2ORDER"> F  </i>
   <i type="logical" name="LMP2LT"> F  </i>
   <i type="logical" name="LUSEW"> F  </i>
   <i name="ENCUTGW">     -2.00000000</i>
   <i name="ENCUTGWSOFT">     -2.00000000</i>
   <i name="ENCUTLF">     -1.00000000</i>
   <i type="int" name="LMAXMP2">    -1</i>
   <i name="SCISSOR">      0.00000000</i>
   <i type="int" name="NOMEGA">     0</i>
   <i type="int" name="NOMEGAR">     0</i>
   <i type="int" name="NBANDSGW">    -1</i>
   <i type="int" name="NBANDSO">    -1</i>
   <i type="int" name="NBANDSV">    -1</i>
   <i type="int" name="NELM">   100</i>
   <i type="int" name="NELMHF">     1</i>
   <i type="int" name="DIM">     3</i>
   <i type="int" name="ANTIRES">     0</i>
   <i name="OMEGAMAX">    -30.00000000</i>
   <i name="OMEGAMIN">    -30.00000000</i>
   <i name="OMEGATL">   -200.00000000</i>
   <i type="int" name="OMEGAGRID">   140</i>
   <i name="CSHIFT">     -0.10000000</i>
   <i type="logical" name="SELFENERGY"> F  </i>
   <i type="logical" name="LSPECTRAL"> F  </i>
   <i type="logical" name="LSPECTRALGW"> F  </i>
   <i type="logical" name="LSINGLES"> F  </i>
   <i type="logical" name="LFERMIGW"> F  </i>
   <i type="logical" name="ODDONLYGW"> F  </i>
   <i type="logical" name="EVENONLYGW"> F  </i>
   <i type="int" name="NKREDLFX">     1</i>
   <i type="int" name="NKREDLFY">     1</i>
   <i type="int" name="NKREDLFZ">     1</i>
   <i type="int" name="MAXMEM">  2800</i>
   <i type="int" name="TELESCOPE">     0</i>
   <i type="int" name="TAUPAR">     1</i>
   <i type="int" name="OMEGAPAR">    -1</i>
   <i name="LAMBDA">      1.00000000</i>
  </separator>
  <separator name="External order field" >
   <i name="OFIELD_KAPPA">      0.00000000</i>
   <v name="OFIELD_K">      0.00000000      0.00000000      0.00000000</v>
   <i name="OFIELD_Q6_NEAR">      0.00000000</i>
   <i name="OFIELD_Q6_FAR">      0.00000000</i>
   <i name="OFIELD_A">      0.00000000</i>
  </separator>
 </parameters>
 <atominfo>
  <atoms>       2 </atoms>
  <types>       2 </types>
  <array name="atoms" >
   <dimension dim="1">ion</dimension>
   <field type="string">element</field>
   <field type="int">atomtype</field>
   <set>
    <rc><c>Al</c><c>   1</c></rc>
    <rc><c>Sb</c><c>   2</c></rc>
   </set>
  </array>
  <array name="atomtypes" >
   <dimension dim="1">type</dimension>
   <field type="int">atomspertype</field>
   <field type="string">element</field>
   <field>mass</field>
   <field>valence</field>
   <field type="string">pseudopotential</field>
   <set>
    <rc><c>   1</c><c>Al</c><c>     26.98100000</c><c>      3.00000000</c><c>  PAW_PBE Al 04Jan2001                  </c></rc>
    <rc><c>   1</c><c>Sb</c><c>    121.75000000</c><c>      5.00000000</c><c>  PAW_PBE Sb 06Sep2000                  </c></rc>
   </set>
  </array>
 </atominfo>
 <structure name="initialpos" >
  <crystal>
   <varray name="basis" >
    <v>       0.00000000       3.11616693       3.11616693 </v>
    <v>       3.11616693       0.00000000       3.11616693 </v>
    <v>       3.11616693       3.11616693       0.00000000 </v>
   </varray>
   <i name="volume">     60.51905489 </i>
   <varray name="rec_basis" >
    <v>      -0.16045354       0.16045354       0.16045354 </v>
    <v>       0.16045354      -0.16045354       0.16045354 </v>
    <v>       0.16045354       0.16045354      -0.16045354 </v>
   </varray>
  </crystal>
  <varray name="positions" >
   <v>       0.00000000       0.00000000       0.00000000 </v>
   <v>       0.25000000       0.25000000       0.25000000 </v>
  </varray>
 </structure>
 <calculation>
  <scstep>
   <time name="dav">    0.04    0.04</time>
   <time name="total">    0.14    0.14</time>
   <energy>
    <i name="alphaZ">     -1.72369768 </i>
    <i name="ewald">   -207.87931148 </i>
    <i name="hartreedc">    -13.37455951 </i>
    <i name="XCdc">    -72.86565113 </i>
    <i name="pawpsdc">    229.87962722 </i>
    <i name="pawaedc">   -143.96909389 </i>
    <i name="eentropy">     -0.00004549 </i>
    <i name="bandstr">     22.75485631 </i>
    <i name="atom">    203.48921574 </i>
    <i name="e_fr_energy">     16.31134010 </i>
    <i name="e_wo_entrp">     16.31138559 </i>
    <i name="e_0_energy">     16.31136285 </i>
   </energy>
  </scstep>
  <scstep>
   <time name="dav">    0.05    0.05</time>
   <time name="total">    0.05    0.05</time>
   <energy>
    <i name="e_fr_energy">     -7.69223303 </i>
    <i name="e_wo_entrp">     -7.69223303 </i>
    <i name="e_0_energy">     -7.69223303 </i>
   </energy>
  </scstep>
  <scstep>
   <time name="dav">    0.05    0.05</time>
   <time name="total">    0.05    0.05</time>
   <energy>
    <i name="e_fr_energy">     -8.28554221 </i>
    <i name="e_wo_entrp">     -8.28554221 </i>
    <i name="e_0_energy">     -8.28554221 </i>
   </energy>
  </scstep>
  <scstep>
   <time name="dav">    0.06    0.06</time>
   <time name="total">    0.06    0.06</time>
   <energy>
    <i name="e_fr_energy">     -8.28928886 </i>
    <i name="e_wo_entrp">     -8.28928886 </i>
    <i name="e_0_energy">     -8.28928886 </i>
   </energy>
  </scstep>
  <scstep>
   <time name="dav">    0.05    0.05</time>
   <time name="total">    0.05    0.05</time>
   <energy>
    <i name="e_fr_energy">     -8.28930084 </i>
    <i name="e_wo_entrp">     -8.28930084 </i>
    <i name="e_0_energy">     -8.28930084 </i>
   </energy>
  </scstep>
  <scstep>
   <time name="dav">    0.06    0.06</time>
   <time name="total">    0.06    0.06</time>
   <energy>
    <i name="e_fr_energy">     -8.28930099 </i>
    <i name="e_wo_entrp">     -8.28930099 </i>
    <i name="e_0_energy">     -8.28930099 </i>
   </energy>
  </scstep>
  <scstep>
   <time name="dav">    0.05    0.05</time>
   <time name="total">    0.05    0.05</time>
   <energy>
    <i name="e_fr_energy">     -8.28930099 </i>
    <i name="e_wo_entrp">     -8.28930099 </i>
    <i name="e_0_energy">     -8.28930099 </i>
   </energy>
  </scstep>
  <scstep>
   <time name="dav">    0.05    0.05</time>
   <time name="total">    0.07    0.07</time>
   <energy>
    <i name="e_fr_energy">     -8.28930099 </i>
    <i name="e_wo_entrp">     -8.28930099 </i>
    <i name="e_0_energy">     -8.28930099 </i>
   </energy>
  </scstep>
  <scstep>
   <time name="dav">    0.04    0.04</time>
   <time name="total">    0.16    0.16</time>
   <energy>
    <i name="e_fr_energy">     -8.24779378 </i>
    <i name="e_wo_entrp">     -8.24779378 </i>
    <i name="e_0_energy">     -8.24779378 </i>
   </energy>
  </scstep>
  <scstep>
   <time name="dav">    0.04    0.04</time>
   <time name="total">    0.17    0.17</time>
   <energy>
    <i name="e_fr_energy">     -8.21594759 </i>
    <i name="e_wo_entrp">     -8.21594759 </i>
    <i name="e_0_energy">     -8.21594759 </i>
   </energy>
  </scstep>
  <scstep>
   <time name="dav">    0.04    0.04</time>
   <time name="total">    0.16    0.16</time>
   <energy>
    <i name="e_fr_energy">     -8.21342653 </i>
    <i name="e_wo_entrp">     -8.21342653 </i>
    <i name="e_0_energy">     -8.21342653 </i>
   </energy>
  </scstep>
  <scstep>
   <time name="dav">    0.05    0.05</time>
   <time name="total">    0.17    0.17</time>
   <energy>
    <i name="e_fr_energy">     -8.21342815 </i>
    <i name="e_wo_entrp">     -8.21342815 </i>
    <i name="e_0_energy">     -8.21342815 </i>
   </energy>
  </scstep>
  <scstep>
   <time name="dav">    0.04    0.04</time>
   <time name="total">    0.17    0.17</time>
   <energy>
    <i name="e_fr_energy">     -8.21331042 </i>
    <i name="e_wo_entrp">     -8.21331042 </i>
    <i name="e_0_energy">     -8.21331042 </i>
   </energy>
  </scstep>
  <scstep>
   <time name="dav">    0.05    0.05</time>
   <time name="total">    0.17    0.17</time>
   <energy>
    <i name="e_fr_energy">     -8.21332101 </i>
    <i name="e_wo_entrp">     -8.21332101 </i>
    <i name="e_0_energy">     -8.21332101 </i>
   </energy>
  </scstep>
  <scstep>
   <time name="dav">    0.05    0.05</time>
   <time name="total">    0.17    0.17</time>
   <energy>
    <i name="e_fr_energy">     -8.21332211 </i>
    <i name="e_wo_entrp">     -8.21332211 </i>
    <i name="e_0_energy">     -8.21332211 </i>
   </energy>
  </scstep>
  <scstep>
   <time name="dav">    0.05    0.05</time>
   <time name="total">    0.17    0.17</time>
   <energy>
    <i name="e_fr_energy">     -8.21332153 </i>
    <i name="e_wo_entrp">     -8.21332153 </i>
    <i name="e_0_energy">     -8.21332153 </i>
   </energy>
  </scstep>
  <scstep>
   <time name="dav">    0.03    0.03</time>
   <time name="total">    0.13    0.13</time>
   <energy>
    <i name="alphaZ">     -1.72369768 </i>
    <i name="ewald">   -207.87931148 </i>
    <i name="hartreedc">    -16.28874822 </i>
    <i name="XCdc">    -72.31745397 </i>
    <i name="pawpsdc">    531.39180078 </i>
    <i name="pawaedc">   -445.60957572 </i>
    <i name="eentropy">     -0.00000000 </i>
    <i name="bandstr">      0.72444905 </i>
    <i name="atom">    203.48921574 </i>
    <i name="e_fr_energy">     -8.21332151 </i>
    <i name="e_wo_entrp">     -8.21332151 </i>
    <i name="e_0_energy">     -8.21332151 </i>
   </energy>
  </scstep>
  <structure>
   <crystal>
    <varray name="basis" >
     <v>       0.00000000       3.11616693       3.11616693 </v>
     <v>       3.11616693       0.00000000       3.11616693 </v>
     <v>       3.11616693       3.11616693       0.00000000 </v>
    </varray>
    <i name="volume">     60.51905489 </i>
    <varray name="rec_basis" >
     <v>      -0.16045354       0.16045354       0.16045354 </v>
     <v>       0.16045354      -0.16045354       0.16045354 </v>
     <v>       0.16045354       0.16045354      -0.16045354 </v>
    </varray>
   </crystal>
   <varray name="positions" >
    <v>       0.00000000       0.00000000       0.00000000 </v>
    <v>       0.25000000       0.25000000       0.25000000 </v>
   </varray>
  </structure>
  <varray name="forces" >
   <v>       0.00000000      -0.00000000       0.00000000 </v>
   <v>      -0.00000000       0.00000000      -0.00000000 </v>
  </varray>
  <varray name="stress" >
   <v>      -0.02315328      -0.00000000      -0.00000000 </v>
   <v>      -0.00000000      -0.02315328      -0.00000000 </v>
   <v>       0.00000000       0.00000000      -0.02315328 </v>
  </varray>
  <energy>
   <i name="e_fr_energy">     -8.21332151 </i>
   <i name="e_wo_entrp">     -8.21332151 </i>
   <i name="e_0_energy">     -0.00000000 </i>
  </energy>
  <time name="totalsc">    2.70    2.70</time>
  <eigenvalues>
   <array>
    <dimension dim="1">band</dimension>
    <dimension dim="2">kpoint</dimension>
    <dimension dim="3">spin</dimension>
    <field>eigene</field>
    <field>occ</field>
    <set>
     <set comment="spin 1">
      <set comment="kpoint 1">
       <r>   -6.0972    1.0000 </r>
       <r>    4.3735    1.0000 </r>
       <r>    4.3735    1.0000 </r>
       <r>    4.3735    1.0000 </r>
       <r>    5.6285    0.0000 </r>
       <r>    7.4493    0.0000 </r>
       <r>    7.4493    0.0000 </r>
       <r>    7.4493    0.0000 </r>
      </set>
      <set comment="kpoint 2">
       <r>   -5.9615    1.0000 </r>
       <r>    2.9310    1.0000 </r>
       <r>    4.1950    1.0000 </r>
       <r>    4.1950    1.0000 </r>
       <r>    6.2505    0.0000 </r>
       <r>    7.7233    0.0000 </r>
       <r>    7.7233    0.0000 </r>
       <r>    8.0182    0.0000 </r>
      </set>
      <set comment="kpoint 3">
       <r>   -5.5814    1.0000 </r>
       <r>    1.1298    1.0000 </r>
       <r>    3.8584    1.0000 </r>
       <r>    3.8584    1.0000 </r>
       <r>    6.0033    0.0000 </r>
       <r>    8.1170    0.0000 </r>
       <r>    8.1170    0.0000 </r>
       <r>    9.7555    0.0000 </r>
      </set>
      <set comment="kpoint 4">
       <r>   -5.0791    1.0000 </r>
       <r>   -0.2810    1.0000 </r>
       <r>    3.5979    1.0000 </r>
       <r>    3.5979    1.0000 </r>
       <r>    5.7034    0.0000 </r>
       <r>    8.1474    0.0000 </r>
       <r>    8.1474    0.0000 </r>
       <r>   10.9969    0.0000 </r>
      </set>
      <set comment="kpoint 5">
       <r>   -4.8026    1.0000 </r>
       <r>   -0.8670    1.0000 </r>
       <r>    3.5042    1.0000 </r>
       <r>    3.5042    1.0000 </r>
       <r>    5.5938    0.0000 </r>
       <r>    8.0910    0.0000 </r>
       <r>    8.0910    0.0000 </r>
       <r>   10.9311    0.0000 </r>
      </set>
      <set comment="kpoint 6">
       <r>   -5.9156    1.0000 </r>
       <r>    2.9427    1.0000 </r>
       <r>    3.8590    1.0000 </r>
       <r>    3.8590    1.0000 </r>
       <r>    6.7380    0.0000 </r>
       <r>    7.2028    0.0000 </r>
       <r>    8.2262    0.0000 </r>
       <r>    8.2262    0.0000 </r>
      </set>
      <set comment="kpoint 7">
       <r>   -5.6141    1.0000 </r>
       <r>    1.5592    1.0000 </r>
       <r>    3.4793    1.0000 </r>
       <r>    3.4842    1.0000 </r>
       <r>    6.7291    0.0000 </r>
       <r>    7.4847    0.0000 </r>
       <r>    8.8170    0.0000 </r>
       <r>    8.9811    0.0000 </r>
      </set>
      <set comment="kpoint 8">
       <r>   -5.1378    1.0000 </r>
       <r>    0.1249    1.0000 </r>
       <r>    3.0176    1.0000 </r>
       <r>    3.2578    1.0000 </r>
       <r>    6.5375    0.0000 </r>
       <r>    7.8834    0.0000 </r>
       <r>    8.8865    0.0000 </r>
       <r>    9.5349    0.0000 </r>
      </set>
      <set comment="kpoint 9">
       <r>   -4.7434    1.0000 </r>
       <r>   -0.7361    1.0000 </r>
       <r>    2.6709    1.0000 </r>
       <r>    3.2575    1.0000 </r>
       <r>    6.3938    0.0000 </r>
       <r>    7.9577    0.0000 </r>
       <r>    8.6435    0.0000 </r>
       <r>   10.8969    0.0000 </r>
      </set>
      <set comment="kpoint 10">
       <r>   -4.8413    1.0000 </r>
       <r>   -0.5388    1.0000 </r>
       <r>    2.5545    1.0000 </r>
       <r>    3.4720    1.0000 </r>
       <r>    6.4416    0.0000 </r>
       <r>    8.1161    0.0000 </r>
       <r>    8.4458    0.0000 </r>
       <r>   11.1134    0.0000 </r>
      </set>
      <set comment="kpoint 11">
       <r>   -5.3096    1.0000 </r>
       <r>    0.5687    1.0000 </r>
       <r>    2.7279    1.0000 </r>
       <r>    3.8350    1.0000 </r>
       <r>    6.6564    0.0000 </r>
       <r>    8.2280    0.0000 </r>
       <r>    8.2996    0.0000 </r>
       <r>    9.7390    0.0000 </r>
      </set>
      <set comment="kpoint 12">
       <r>   -5.7427    1.0000 </r>
       <r>    1.9680    1.0000 </r>
       <r>    3.3058    1.0000 </r>
       <r>    4.1749    1.0000 </r>
       <r>    6.7485    0.0000 </r>
       <r>    7.8133    0.0000 </r>
       <r>    7.8290    0.0000 </r>
       <r>    9.0056    0.0000 </r>
      </set>
      <set comment="kpoint 13">
       <r>   -5.3991    1.0000 </r>
       <r>    1.1894    1.0000 </r>
       <r>    3.0510    1.0000 </r>
       <r>    3.0510    1.0000 </r>
       <r>    6.1146    0.0000 </r>
       <r>    7.3740    0.0000 </r>
       <r>    9.7929    0.0000 </r>
       <r>    9.7929    0.0000 </r>
      </set>
      <set comment="kpoint 14">
       <r>   -4.9913    1.0000 </r>
       <r>    0.2295    1.0000 </r>
       <r>    2.4768    1.0000 </r>
       <r>    2.7957    1.0000 </r>
       <r>    6.2240    0.0000 </r>
       <r>    7.3162    0.0000 </r>
       <r>    9.7409    0.0000 </r>
       <r>   10.2429    0.0000 </r>
      </set>
      <set comment="kpoint 15">
       <r>   -4.5753    1.0000 </r>
       <r>   -0.5512    1.0000 </r>
       <r>    1.8084    1.0000 </r>
       <r>    2.7871    1.0000 </r>
       <r>    6.3107    0.0000 </r>
       <r>    8.5449    0.0000 </r>
       <r>    9.4714    0.0000 </r>
       <r>   10.0090    0.0000 </r>
      </set>
      <set comment="kpoint 16">
       <r>   -4.5149    1.0000 </r>
       <r>   -0.6356    1.0000 </r>
       <r>    1.4633    1.0000 </r>
       <r>    3.0250    1.0000 </r>
       <r>    6.5056    0.0000 </r>
       <r>    9.2092    0.0000 </r>
       <r>    9.6161    0.0000 </r>
       <r>   10.5879    0.0000 </r>
      </set>
      <set comment="kpoint 17">
       <r>   -4.8780    1.0000 </r>
       <r>   -0.0540    1.0000 </r>
       <r>    1.6946    1.0000 </r>
       <r>    3.4410    1.0000 </r>
       <r>    6.8469    0.0000 </r>
       <r>    8.9988    0.0000 </r>
       <r>    9.1795    0.0000 </r>
       <r>    9.4830    0.0000 </r>
      </set>
      <set comment="kpoint 18">
       <r>   -4.6803    1.0000 </r>
       <r>   -0.2926    1.0000 </r>
       <r>    2.4830    1.0000 </r>
       <r>    2.4830    1.0000 </r>
       <r>    5.6829    0.0000 </r>
       <r>    6.3744    0.0000 </r>
       <r>   11.5563    0.0000 </r>
       <r>   11.5563    0.0000 </r>
      </set>
      <set comment="kpoint 19">
       <r>   -4.3567    1.0000 </r>
       <r>   -0.7721    1.0000 </r>
       <r>    1.9156    1.0000 </r>
       <r>    2.4183    1.0000 </r>
       <r>    5.8717    0.0000 </r>
       <r>    6.6853    0.0000 </r>
       <r>   11.5369    0.0000 </r>
       <r>   11.7399    0.0000 </r>
      </set>
      <set comment="kpoint 20">
       <r>   -4.2818    1.0000 </r>
       <r>   -0.8023    1.0000 </r>
       <r>    1.2884    1.0000 </r>
       <r>    2.6162    1.0000 </r>
       <r>    6.0905    0.0000 </r>
       <r>    8.3762    0.0000 </r>
       <r>   11.0226    0.0000 </r>
       <r>   11.0654    0.0000 </r>
      </set>
      <set comment="kpoint 21">
       <r>   -4.2434    1.0000 </r>
       <r>   -0.9882    1.0000 </r>
       <r>    2.2846    1.0000 </r>
       <r>    2.2846    1.0000 </r>
       <r>    5.6680    0.0000 </r>
       <r>    5.8348    0.0000 </r>
       <r>   12.8528    0.0000 </r>
       <r>   12.8528    0.0000 </r>
      </set>
      <set comment="kpoint 22">
       <r>   -5.2570    1.0000 </r>
       <r>    0.7051    1.0000 </r>
       <r>    2.4836    1.0000 </r>
       <r>    3.3737    1.0000 </r>
       <r>    7.0338    0.0000 </r>
       <r>    7.6132    0.0000 </r>
       <r>    8.7428    0.0000 </r>
       <r>    9.5640    0.0000 </r>
      </set>
      <set comment="kpoint 23">
       <r>   -4.7939    1.0000 </r>
       <r>   -0.2572    1.0000 </r>
       <r>    1.9585    1.0000 </r>
       <r>    3.0258    1.0000 </r>
       <r>    7.1589    0.0000 </r>
       <r>    7.9156    0.0000 </r>
       <r>    9.0393    0.0000 </r>
       <r>    9.9692    0.0000 </r>
      </set>
      <set comment="kpoint 24">
       <r>   -4.5454    1.0000 </r>
       <r>   -0.7138    1.0000 </r>
       <r>    1.8188    1.0000 </r>
       <r>    2.8641    1.0000 </r>
       <r>    7.1245    0.0000 </r>
       <r>    7.8267    0.0000 </r>
       <r>    9.7674    0.0000 </r>
       <r>   10.7582    0.0000 </r>
      </set>
      <set comment="kpoint 25">
       <r>   -4.6041    1.0000 </r>
       <r>   -0.3793    1.0000 </r>
       <r>    1.9644    1.0000 </r>
       <r>    2.4328    1.0000 </r>
       <r>    6.6394    0.0000 </r>
       <r>    7.1814    0.0000 </r>
       <r>    9.6044    0.0000 </r>
       <r>   11.4935    0.0000 </r>
      </set>
      <set comment="kpoint 26">
       <r>   -4.3294    1.0000 </r>
       <r>   -0.7252    1.0000 </r>
       <r>    1.4438    1.0000 </r>
       <r>    2.2921    1.0000 </r>
       <r>    6.9566    0.0000 </r>
       <r>    8.4937    0.0000 </r>
       <r>    9.2095    0.0000 </r>
       <r>   10.8984    0.0000 </r>
      </set>
      <set comment="kpoint 27">
       <r>   -4.4306    1.0000 </r>
       <r>   -0.5926    1.0000 </r>
       <r>    1.3248    1.0000 </r>
       <r>    2.5645    1.0000 </r>
       <r>    7.2781    0.0000 </r>
       <r>    8.7243    0.0000 </r>
       <r>    9.1432    0.0000 </r>
       <r>   10.6467    0.0000 </r>
      </set>
      <set comment="kpoint 28">
       <r>   -4.2305    1.0000 </r>
       <r>   -0.8934    1.0000 </r>
       <r>    1.8554    1.0000 </r>
       <r>    2.0058    1.0000 </r>
       <r>    6.5497    0.0000 </r>
       <r>    6.7922    0.0000 </r>
       <r>   11.0864    0.0000 </r>
       <r>   11.4325    0.0000 </r>
      </set>
      <set comment="kpoint 29">
       <r>   -4.2173    1.0000 </r>
       <r>   -0.7816    1.0000 </r>
       <r>    1.4869    1.0000 </r>
       <r>    1.7818    1.0000 </r>
       <r>    8.3259    0.0000 </r>
       <r>    8.6426    0.0000 </r>
       <r>    8.8290    0.0000 </r>
       <r>    9.1487    0.0000 </r>
      </set>
     </set>
    </set>
   </array>
  </eigenvalues>
  <separator name="orbital magnetization" >
   <v name="MAGDIPOLOUT">      0.00000000      0.00000000      0.00000000</v>
  </separator>
  <dos>
   <i name="efermi">      4.42005387 </i>
   <total>
    <array>
     <dimension dim="1">gridpoints</dimension>
     <dimension dim="2">spin</dimension>
     <field>energy</field>
     <field>total</field>
     <field>integrated</field>
     <set>
      <set comment="spin 1">
       <r>    -7.0447     0.0000     0.0000 </r>
       <r>    -4.9602     0.0450     0.6602 </r>
       <r>    -2.8757     0.0000     2.0000 </r>
       <r>    -0.7912     0.0298     2.1207 </r>
       <r>     1.2933     0.0170     3.8362 </r>
       <r>     3.3778     0.0548     7.2275 </r>
       <r>     5.4623     0.0000     8.0000 </r>
       <r>     7.5468     0.0450    10.4922 </r>
       <r>     9.6313     0.1342    14.0219 </r>
       <r>    11.7158     0.0000    15.8828 </r>
       <r>    13.8003     0.0000    16.0000 </r>
      </set>
     </set>
    </array>
   </total>
   <partial>
    <array>
     <dimension dim="1">gridpoints</dimension>
     <dimension dim="2">spin</dimension>
     <dimension dim="3">ion</dimension>
     <field>energy</field>
     <field>  s  </field>
     <field>  p  </field>
     <field>  d  </field>
     <set>
      <set comment="ion 1">
       <set comment="spin 1">
        <r>    -7.0447     0.0000     0.0000     0.0000 </r>
        <r>    -4.9602     0.0020     0.0004     0.0000 </r>
        <r>    -2.8757     0.0000     0.0000     0.0000 </r>
        <r>    -0.7912     0.0059     0.0002     0.0000 </r>
        <r>     1.2933     0.0000     0.0012     0.0000 </r>
        <r>     3.3778     0.0004     0.0039     0.0000 </r>
        <r>     5.4623     0.0000     0.0000     0.0000 </r>
        <r>     7.5468     0.0023     0.0058     0.0000 </r>
        <r>     9.6313     0.0012     0.0154     0.0000 </r>
        <r>    11.7158     0.0000     0.0000     0.0000 </r>
        <r>    13.8003     0.0000     0.0000     0.0000 </r>
       </set>
      </set>
      <set comment="ion 2">
       <set comment="spin 1">
        <r>    -7.0447     0.0000     0.0000     0.0000 </r>
        <r>    -4.9602     0.0209     0.0002     0.0000 </r>
        <r>    -2.8757     0.0000     0.0000     0.0000 </r>
        <r>    -0.7912     0.0003     0.0042     0.0001 </r>
        <r>     1.2933     0.0000     0.0038     0.0000 </r>
        <r>     3.3778     0.0002     0.0162     0.0003 </r>
        <r>     5.4623     0.0000     0.0000     0.0000 </r>
        <r>     7.5468     0.0045     0.0027     0.0012 </r>
        <r>     9.6313     0.0017     0.0142     0.0073 </r>
        <r>    11.7158     0.0000     0.0000     0.0000 </r>
        <r>    13.8003     0.0000     0.0000     0.0000 </r>
       </set>
      </set>
     </set>
    </array>
   </partial>
  </dos>
  <projected>
   <eigenvalues>
    <array>
     <dimension dim="1">band</dimension>
     <dimension dim="2">kpoint</dimension>
     <dimension dim="3">spin</dimension>
     <field>eigene</field>
     <field>occ</field>
     <set>
      <set comment="spin 1">
       <set comment="kpoint 1">
        <r>   -6.0972    1.0000 </r>
        <r>    4.3735    1.0000 </r>
        <r>    4.3735    1.0000 </r>
        <r>    4.3735    1.0000 </r>
        <r>    5.6285    0.0000 </r>
        <r>    7.4493    0.0000 </r>
        <r>    7.4493    0.0000 </r>
        <r>    7.4493    0.0000 </r>
       </set>
       <set comment="kpoint 2">
        <r>   -5.9615    1.0000 </r>
        <r>    2.9310    1.0000 </r>
        <r>    4.1950    1.0000 </r>
        <r>    4.1950    1.0000 </r>
        <r>    6.2505    0.0000 </r>
        <r>    7.7233    0.0000 </r>
        <r>    7.7233    0.0000 </r>
        <r>    8.0182    0.0000 </r>
       </set>
       <set comment="kpoint 3">
        <r>   -5.5814    1.0000 </r>
        <r>    1.1298    1.0000 </r>
        <r>    3.8584    1.0000 </r>
        <r>    3.8584    1.0000 </r>
        <r>    6.0033    0.0000 </r>
        <r>    8.1170    0.0000 </r>
        <r>    8.1170    0.0000 </r>
        <r>    9.7555    0.0000 </r>
       </set>
       <set comment="kpoint 4">
        <r>   -5.0791    1.0000 </r>
        <r>   -0.2810    1.0000 </r>
        <r>    3.5979    1.0000 </r>
        <r>    3.5979    1.0000 </r>
        <r>    5.7034    0.0000 </r>
        <r>    8.1474    0.0000 </r>
        <r>    8.1474    0.0000 </r>
        <r>   10.9969    0.0000 </r>
       </set>
       <set comment="kpoint 5">
        <r>   -4.8026    1.0000 </r>
        <r>   -0.8670    1.0000 </r>
        <r>    3.5042    1.0000 </r>
        <r>    3.5042    1.0000 </r>
        <r>    5.5938    0.0000 </r>
        <r>    8.0910    0.0000 </r>
        <r>    8.0910    0.0000 </r>
        <r>   10.9311    0.0000 </r>
       </set>
       <set comment="kpoint 6">
        <r>   -5.9156    1.0000 </r>
        <r>    2.9427    1.0000 </r>
        <r>    3.8590    1.0000 </r>
        <r>    3.8590    1.0000 </r>
        <r>    6.7380    0.0000 </r>
        <r>    7.2028    0.0000 </r>
        <r>    8.2262    0.0000 </r>
        <r>    8.2262    0.0000 </r>
       </set>
       <set comment="kpoint 7">
        <r>   -5.6141    1.0000 </r>
        <r>    1.5592    1.0000 </r>
        <r>    3.4793    1.0000 </r>
        <r>    3.4842    1.0000 </r>
        <r>    6.7291    0.0000 </r>
        <r>    7.4847    0.0000 </r>
        <r>    8.8170    0.0000 </r>
        <r>    8.9811    0.0000 </r>
       </set>
       <set comment="kpoint 8">
        <r>   -5.1378    1.0000 </r>
        <r>    0.1249    1.0000 </r>
        <r>    3.0176    1.0000 </r>
        <r>    3.2578    1.0000 </r>
        <r>    6.5375    0.0000 </r>
        <r>    7.8834    0.0000 </r>
        <r>    8.8865    0.0000 </r>
        <r>    9.5349    0.0000 </r>
       </set>
       <set comment="kpoint 9">
        <r>   -4.7434    1.0000 </r>
        <r>   -0.7361    1.0000 </r>
        <r>    2.6709    1.0000 </r>
        <r>    3.2575    1.0000 </r>
        <r>    6.3938    0.0000 </r>
        <r>    7.9577    0.0000 </r>
        <r>    8.6435    0.0000 </r>
        <r>   10.8969    0.0000 </r>
       </set>
       <set comment="kpoint 10">
        <r>   -4.8413    1.0000 </r>
        <r>   -0.5388    1.0000 </r>
        <r>    2.5545    1.0000 </r>
        <r>    3.4720    1.0000 </r>
        <r>    6.4416    0.0000 </r>
        <r>    8.1161    0.0000 </r>
        <r>    8.4458    0.0000 </r>
        <r>   11.1134    0.0000 </r>
       </set>
       <set comment="kpoint 11">
        <r>   -5.3096    1.0000 </r>
        <r>    0.5687    1.0000 </r>
        <r>    2.7279    1.0000 </r>
        <r>    3.8350    1.0000 </r>
        <r>    6.6564    0.0000 </r>
        <r>    8.2280    0.0000 </r>
        <r>    8.2996    0.0000 </r>
        <r>    9.7390    0.0000 </r>
       </set>
       <set comment="kpoint 12">
        <r>   -5.7427    1.0000 </r>
        <r>    1.9680    1.0000 </r>
        <r>    3.3058    1.0000 </r>
        <r>    4.1749    1.0000 </r>
        <r>    6.7485    0.0000 </r>
        <r>    7.8133    0.0000 </r>
        <r>    7.8290    0.0000 </r>
        <r>    9.0056    0.0000 </r>
       </set>
       <set comment="kpoint 13">
        <r>   -5.3991    1.0000 </r>
        <r>    1.1894    1.0000 </r>
        <r>    3.0510    1.0000 </r>
        <r>    3.0510    1.0000 </r>
        <r>    6.1146    0.0000 </r>
        <r>    7.3740    0.0000 </r>
        <r>    9.7929    0.0000 </r>
        <r>    9.7929    0.0000 </r>
       </set>
       <set comment="kpoint 14">
        <r>   -4.9913    1.0000 </r>
        <r>    0.2295    1.0000 </r>
        <r>    2.4768    1.0000 </r>
        <r>    2.7957    1.0000 </r>
        <r>    6.2240    0.0000 </r>
        <r>    7.3162    0.0000 </r>
        <r>    9.7409    0.0000 </r>
        <r>   10.2429    0.0000 </r>
       </set>
       <set comment="kpoint 15">
        <r>   -4.5753    1.0000 </r>
        <r>   -0.5512    1.0000 </r>
        <r>    1.8084    1.0000 </r>
        <r>    2.7871    1.0000 </r>
        <r>    6.3107    0.0000 </r>
        <r>    8.5449    0.0000 </r>
        <r>    9.4714    0.0000 </r>
        <r>   10.0090    0.0000 </r>
       </set>
       <set comment="kpoint 16">
        <r>   -4.5149    1.0000 </r>
        <r>   -0.6356    1.0000 </r>
        <r>    1.4633    1.0000 </r>
        <r>    3.0250    1.0000 </r>
        <r>    6.5056    0.0000 </r>
        <r>    9.2092    0.0000 </r>
        <r>    9.6161    0.0000 </r>
        <r>   10.5879    0.0000 </r>
       </set>
       <set comment="kpoint 17">
        <r>   -4.8780    1.0000 </r>
        <r>   -0.0540    1.0000 </r>
        <r>    1.6946    1.0000 </r>
        <r>    3.4410    1.0000 </r>
        <r>    6.8469    0.0000 </r>
        <r>    8.9988    0.0000 </r>
        <r>    9.1795    0.0000 </r>
        <r>    9.4830    0.0000 </r>
       </set>
       <set comment="kpoint 18">
        <r>   -4.6803    1.0000 </r>
        <r>   -0.2926    1.0000 </r>
        <r>    2.4830    1.0000 </r>
        <r>    2.4830    1.0000 </r>
        <r>    5.6829    0.0000 </r>
        <r>    6.3744    0.0000 </r>
        <r>   11.5563    0.0000 </r>
        <r>   11.5563    0.0000 </r>
       </set>
       <set comment="kpoint 19">
        <r>   -4.3567    1.0000 </r>
        <r>   -0.7721    1.0000 </r>
        <r>    1.9156    1.0000 </r>
        <r>    2.4183    1.0000 </r>
        <r>    5.8717    0.0000 </r>
        <r>    6.6853    0.0000 </r>
        <r>   11.5369    0.0000 </r>
        <r>   11.7399    0.0000 </r>
       </set>
       <set comment="kpoint 20">
        <r>   -4.2818    1.0000 </r>
        <r>   -0.8023    1.0000 </r>
        <r>    1.2884    1.0000 </r>
        <r>    2.6162    1.0000 </r>
        <r>    6.0905    0.0000 </r>
        <r>    8.3762    0.0000 </r>
        <r>   11.0226    0.0000 </r>
        <r>   11.0654    0.0000 </r>
       </set>
       <set comment="kpoint 21">
        <r>   -4.2434    1.0000 </r>
        <r>   -0.9882    1.0000 </r>
        <r>    2.2846    1.0000 </r>
        <r>    2.2846    1.0000 </r>
        <r>    5.6680    0.0000 </r>
        <r>    5.8348    0.0000 </r>
        <r>   12.8528    0.0000 </r>
        <r>   12.8528    0.0000 </r>
       </set>
       <set comment="kpoint 22">
        <r>   -5.2570    1.0000 </r>
        <r>    0.7051    1.0000 </r>
        <r>    2.4836    1.0000 </r>
        <r>    3.3737    1.0000 </r>
        <r>    7.0338    0.0000 </r>
        <r>    7.6132    0.0000 </r>
        <r>    8.7428    0.0000 </r>
        <r>    9.5640    0.0000 </r>
       </set>
       <set comment="kpoint 23">
        <r>   -4.7939    1.0000 </r>
        <r>   -0.2572    1.0000 </r>
        <r>    1.9585    1.0000 </r>
        <r>    3.0258    1.0000 </r>
        <r>    7.1589    0.0000 </r>
        <r>    7.9156    0.0000 </r>
        <r>    9.0393    0.0000 </r>
        <r>    9.9692    0.0000 </r>
       </set>
       <set comment="kpoint 24">
        <r>   -4.5454    1.0000 </r>
        <r>   -0.7138    1.0000 </r>
        <r>    1.8188    1.0000 </r>
        <r>    2.8641    1.0000 </r>
        <r>    7.1245    0.0000 </r>
        <r>    7.8267    0.0000 </r>
        <r>    9.7674    0.0000 </r>
        <r>   10.7582    0.0000 </r>
       </set>
       <set comment="kpoint 25">
        <r>   -4.6041    1.0000 </r>
        <r>   -0.3793    1.0000 </r>
        <r>    1.9644    1.0000 </r>
        <r>    2.4328    1.0000 </r>
        <r>    6.6394    0.0000 </r>
        <r>    7.1814    0.0000 </r>
        <r>    9.6044    0.0000 </r>
        <r>   11.4935    0.0000 </r>
       </set>
       <set comment="kpoint 26">
        <r>   -4.3294    1.0000 </r>
        <r>   -0.7252    1.0000 </r>
        <r>    1.4438    1.0000 </r>
        <r>    2.2921    1.0000 </r>
        <r>    6.9566    0.0000 </r>
        <r>    8.4937    0.0000 </r>
        <r>    9.2095    0.0000 </r>
        <r>   10.8984    0.0000 </r>
       </set>
       <set comment="kpoint 27">
        <r>   -4.4306    1.0000 </r>
        <r>   -0.5926    1.0000 </r>
        <r>    1.3248    1.0000 </r>
        <r>    2.5645    1.0000 </r>
        <r>    7.2781    0.0000 </r>
        <r>    8.7243    0.0000 </r>
        <r>    9.1432    0.0000 </r>
        <r>   10.6467    0.0000 </r>
       </set>
       <set comment="kpoint 28">
        <r>   -4.2305    1.0000 </r>
        <r>   -0.8934    1.0000 </r>
        <r>    1.8554    1.0000 </r>
        <r>    2.0058    1.0000 </r>
        <r>    6.5497    0.0000 </r>
        <r>    6.7922    0.0000 </r>
        <r>   11.0864    0.0000 </r>
        <r>   11.4325    0.0000 </r>
       </set>
       <set comment="kpoint 29">
        <r>   -4.2173    1.0000 </r>
        <r>   -0.7816    1.0000 </r>
        <r>    1.4869    1.0000 </r>
        <r>    1.7818    1.0000 </r>
        <r>    8.3259    0.0000 </r>
        <r>    8.6426    0.0000 </r>
        <r>    8.8290    0.0000 </r>
        <r>    9.1487    0.0000 </r>
       </set>
      </set>
     </set>
    </array>
   </eigenvalues>
   <array>
    <dimension dim="1">ion</dimension>
    <dimension dim="2">band</dimension>
    <dimension dim="3">kpoint</dimension>
    <dimension dim="4">spin</dimension>
    <field>  s  </field>
    <field>  p  </field>
    <field>  d  </field>
    <set>
     <set comment="spin1">
      <set comment="kpoint 1">
       <set comment="band 1">
        <r>  0.0738  0.0000  0.0000 </r>
        <r>  0.3985  0.0000  0.0000 </r>
       </set>
       <set comment="band 2">
        <r>  0.0000  0.0453  0.0000 </r>
        <r>  0.0000  0.3838  0.0055 </r>
       </set>
       <set comment="band 3">
        <r>  0.0000  0.0453  0.0000 </r>
        <r>  0.0000  0.3838  0.0055 </r>
       </set>
       <set comment="band 4">
        <r>  0.0000  0.0453  0.0000 </r>
        <r>  0.0000  0.3838  0.0055 </r>
       </set>
       <set comment="band 5">
        <r>  0.2631  0.0000  0.0000 </r>
        <r>  0.3370  0.0000  0.0000 </r>
       </set>
       <set comment="band 6">
        <r>  0.0000  0.1789  0.0000 </r>
        <r>  0.0000  0.0344  0.0521 </r>
       </set>
       <set comment="band 7">
        <r>  0.0000  0.1789  0.0000 </r>
        <r>  0.0000  0.0344  0.0521 </r>
       </set>
       <set comment="band 8">
        <r>  0.0000  0.1789  0.0000 </r>
        <r>  0.0000  0.0344  0.0521 </r>
       </set>
      </set>
      <set comment="kpoint 2">
       <set comment="band 1">
        <r>  0.0711  0.0011  0.0000 </r>
        <r>  0.4040  0.0010  0.0000 </r>
       </set>
       <set comment="band 2">
        <r>  0.0747  0.0367  0.0000 </r>
        <r>  0.0939  0.2287  0.0047 </r>
       </set>
       <set comment="band 3">
        <r>  0.0000  0.0544  0.0000 </r>
        <r>  0.0000  0.3641  0.0058 </r>
       </set>
       <set comment="band 4">
        <r>  0.0000  0.0544  0.0000 </r>
        <r>  0.0000  0.3641  0.0058 </r>
       </set>
       <set comment="band 5">
        <r>  0.1793  0.0380  0.0000 </r>
        <r>  0.1825  0.0743  0.0104 </r>
       </set>
       <set comment="band 6">
        <r>  0.0000  0.1698  0.0000 </r>
        <r>  0.0000  0.0544  0.0514 </r>
       </set>
       <set comment="band 7">
        <r>  0.0000  0.1698  0.0000 </r>
        <r>  0.0000  0.0544  0.0514 </r>
       </set>
       <set comment="band 8">
        <r>  0.0375  0.1172  0.0000 </r>
        <r>  0.0572  0.1056  0.0374 </r>
       </set>
      </set>
      <set comment="kpoint 3">
       <set comment="band 1">
        <r>  0.0626  0.0041  0.0000 </r>
        <r>  0.4236  0.0031  0.0001 </r>
       </set>
       <set comment="band 2">
        <r>  0.0972  0.0325  0.0000 </r>
        <r>  0.0911  0.1765  0.0033 </r>
       </set>
       <set comment="band 3">
        <r>  0.0000  0.0673  0.0000 </r>
        <r>  0.0000  0.3393  0.0052 </r>
       </set>
       <set comment="band 4">
        <r>  0.0000  0.0673  0.0000 </r>
        <r>  0.0000  0.3393  0.0052 </r>
       </set>
       <set comment="band 5">
        <r>  0.1620  0.0426  0.0000 </r>
        <r>  0.1342  0.0413  0.0206 </r>
       </set>
       <set comment="band 6">
        <r>  0.0000  0.1452  0.0000 </r>
        <r>  0.0000  0.0690  0.0531 </r>
       </set>
       <set comment="band 7">
        <r>  0.0000  0.1452  0.0000 </r>
        <r>  0.0000  0.0690  0.0531 </r>
       </set>
       <set comment="band 8">
        <r>  0.0617  0.0815  0.0000 </r>
        <r>  0.0767  0.1796  0.0208 </r>
       </set>
      </set>
      <set comment="kpoint 4">
       <set comment="band 1">
        <r>  0.0476  0.0083  0.0000 </r>
        <r>  0.4639  0.0031  0.0002 </r>
       </set>
       <set comment="band 2">
        <r>  0.1174  0.0270  0.0000 </r>
        <r>  0.0552  0.1551  0.0020 </r>
       </set>
       <set comment="band 3">
        <r>  0.0000  0.0747  0.0000 </r>
        <r>  0.0000  0.3273  0.0041 </r>
       </set>
       <set comment="band 4">
        <r>  0.0000  0.0747  0.0000 </r>
        <r>  0.0000  0.3273  0.0041 </r>
       </set>
       <set comment="band 5">
        <r>  0.1699  0.0296  0.0000 </r>
        <r>  0.1338  0.0311  0.0227 </r>
       </set>
       <set comment="band 6">
        <r>  0.0000  0.1140  0.0000 </r>
        <r>  0.0000  0.0573  0.0579 </r>
       </set>
       <set comment="band 7">
        <r>  0.0000  0.1140  0.0000 </r>
        <r>  0.0000  0.0573  0.0579 </r>
       </set>
       <set comment="band 8">
        <r>  0.0006  0.0401  0.0000 </r>
        <r>  0.0110  0.1137  0.0062 </r>
       </set>
      </set>
      <set comment="kpoint 5">
       <set comment="band 1">
        <r>  0.0363  0.0108  0.0000 </r>
        <r>  0.4980  0.0009  0.0004 </r>
       </set>
       <set comment="band 2">
        <r>  0.1303  0.0239  0.0000 </r>
        <r>  0.0222  0.1510  0.0014 </r>
       </set>
       <set comment="band 3">
        <r>  0.0000  0.0770  0.0000 </r>
        <r>  0.0000  0.3241  0.0035 </r>
       </set>
       <set comment="band 4">
        <r>  0.0000  0.0770  0.0000 </r>
        <r>  0.0000  0.3241  0.0035 </r>
       </set>
       <set comment="band 5">
        <r>  0.1735  0.0246  0.0000 </r>
        <r>  0.1355  0.0283  0.0232 </r>
       </set>
       <set comment="band 6">
        <r>  0.0000  0.1032  0.0000 </r>
        <r>  0.0000  0.0509  0.0597 </r>
       </set>
       <set comment="band 7">
        <r>  0.0000  0.1032  0.0000 </r>
        <r>  0.0000  0.0509  0.0597 </r>
       </set>
       <set comment="band 8">
        <r>  0.0033  0.0220  0.0000 </r>
        <r>  0.0065  0.0602  0.0082 </r>
       </set>
      </set>
      <set comment="kpoint 6">
       <set comment="band 1">
        <r>  0.0701  0.0015  0.0000 </r>
        <r>  0.4058  0.0014  0.0000 </r>
       </set>
       <set comment="band 2">
        <r>  0.0991  0.0259  0.0000 </r>
        <r>  0.1237  0.2163  0.0045 </r>
       </set>
       <set comment="band 3">
        <r>  0.0000  0.0630  0.0000 </r>
        <r>  0.0000  0.3321  0.0061 </r>
       </set>
       <set comment="band 4">
        <r>  0.0000  0.0630  0.0000 </r>
        <r>  0.0000  0.3321  0.0061 </r>
       </set>
       <set comment="band 5">
        <r>  0.1524  0.0263  0.0000 </r>
        <r>  0.0426  0.1539  0.0205 </r>
       </set>
       <set comment="band 6">
        <r>  0.0415  0.1380  0.0000 </r>
        <r>  0.1578  0.0368  0.0249 </r>
       </set>
       <set comment="band 7">
        <r>  0.0000  0.1614  0.0000 </r>
        <r>  0.0000  0.0872  0.0531 </r>
       </set>
       <set comment="band 8">
        <r>  0.0000  0.1614  0.0000 </r>
        <r>  0.0000  0.0872  0.0531 </r>
       </set>
      </set>
      <set comment="kpoint 7">
       <set comment="band 1">
        <r>  0.0633  0.0039  0.0000 </r>
        <r>  0.4209  0.0032  0.0001 </r>
       </set>
       <set comment="band 2">
        <r>  0.1083  0.0278  0.0000 </r>
        <r>  0.1113  0.1803  0.0038 </r>
       </set>
       <set comment="band 3">
        <r>  0.0000  0.0718  0.0000 </r>
        <r>  0.0000  0.3104  0.0052 </r>
       </set>
       <set comment="band 4">
        <r>  0.0168  0.0639  0.0000 </r>
        <r>  0.0126  0.2930  0.0061 </r>
       </set>
       <set comment="band 5">
        <r>  0.1099  0.0449  0.0000 </r>
        <r>  0.0329  0.1240  0.0284 </r>
       </set>
       <set comment="band 6">
        <r>  0.0516  0.1283  0.0000 </r>
        <r>  0.1009  0.0595  0.0273 </r>
       </set>
       <set comment="band 7">
        <r>  0.0000  0.1464  0.0000 </r>
        <r>  0.0000  0.1040  0.0557 </r>
       </set>
       <set comment="band 8">
        <r>  0.0125  0.0868  0.0000 </r>
        <r>  0.0130  0.0957  0.0544 </r>
       </set>
      </set>
      <set comment="kpoint 8">
       <set comment="band 1">
        <r>  0.0496  0.0080  0.0000 </r>
        <r>  0.4556  0.0041  0.0002 </r>
       </set>
       <set comment="band 2">
        <r>  0.1230  0.0254  0.0000 </r>
        <r>  0.0745  0.1567  0.0027 </r>
       </set>
       <set comment="band 3">
        <r>  0.0287  0.0628  0.0000 </r>
        <r>  0.0200  0.2628  0.0055 </r>
       </set>
       <set comment="band 4">
        <r>  0.0000  0.0770  0.0000 </r>
        <r>  0.0000  0.3035  0.0040 </r>
       </set>
       <set comment="band 5">
        <r>  0.1162  0.0417  0.0000 </r>
        <r>  0.0746  0.1056  0.0252 </r>
       </set>
       <set comment="band 6">
        <r>  0.0256  0.1131  0.0000 </r>
        <r>  0.0332  0.0649  0.0421 </r>
       </set>
       <set comment="band 7">
        <r>  0.0000  0.1171  0.0000 </r>
        <r>  0.0000  0.0866  0.0604 </r>
       </set>
       <set comment="band 8">
        <r>  0.0160  0.0557  0.0000 </r>
        <r>  0.0146  0.0835  0.0570 </r>
       </set>
      </set>
      <set comment="kpoint 9">
       <set comment="band 1">
        <r>  0.0335  0.0117  0.0000 </r>
        <r>  0.5014  0.0017  0.0003 </r>
       </set>
       <set comment="band 2">
        <r>  0.1402  0.0217  0.0000 </r>
        <r>  0.0278  0.1492  0.0020 </r>
       </set>
       <set comment="band 3">
        <r>  0.0314  0.0626  0.0000 </r>
        <r>  0.0219  0.2497  0.0046 </r>
       </set>
       <set comment="band 4">
        <r>  0.0000  0.0789  0.0000 </r>
        <r>  0.0000  0.3072  0.0035 </r>
       </set>
       <set comment="band 5">
        <r>  0.1250  0.0396  0.0000 </r>
        <r>  0.0881  0.0917  0.0247 </r>
       </set>
       <set comment="band 6">
        <r>  0.0131  0.0883  0.0000 </r>
        <r>  0.0176  0.0596  0.0497 </r>
       </set>
       <set comment="band 7">
        <r>  0.0000  0.1024  0.0000 </r>
        <r>  0.0000  0.0696  0.0612 </r>
       </set>
       <set comment="band 8">
        <r>  0.0090  0.0755  0.0000 </r>
        <r>  0.0053  0.1236  0.0419 </r>
       </set>
      </set>
      <set comment="kpoint 10">
       <set comment="band 1">
        <r>  0.0381  0.0107  0.0000 </r>
        <r>  0.4882  0.0026  0.0003 </r>
       </set>
       <set comment="band 2">
        <r>  0.1353  0.0229  0.0000 </r>
        <r>  0.0411  0.1501  0.0022 </r>
       </set>
       <set comment="band 3">
        <r>  0.0283  0.0636  0.0000 </r>
        <r>  0.0188  0.2470  0.0044 </r>
       </set>
       <set comment="band 4">
        <r>  0.0000  0.0773  0.0000 </r>
        <r>  0.0000  0.3194  0.0040 </r>
       </set>
       <set comment="band 5">
        <r>  0.1318  0.0418  0.0000 </r>
        <r>  0.0950  0.0885  0.0237 </r>
       </set>
       <set comment="band 6">
        <r>  0.0074  0.0865  0.0000 </r>
        <r>  0.0132  0.0623  0.0519 </r>
       </set>
       <set comment="band 7">
        <r>  0.0000  0.1101  0.0000 </r>
        <r>  0.0000  0.0651  0.0575 </r>
       </set>
       <set comment="band 8">
        <r>  0.0160  0.0770  0.0000 </r>
        <r>  0.0111  0.1652  0.0291 </r>
       </set>
      </set>
      <set comment="kpoint 11">
       <set comment="band 1">
        <r>  0.0551  0.0065  0.0000 </r>
        <r>  0.4415  0.0040  0.0001 </r>
       </set>
       <set comment="band 2">
        <r>  0.1169  0.0271  0.0000 </r>
        <r>  0.0893  0.1624  0.0031 </r>
       </set>
       <set comment="band 3">
        <r>  0.0202  0.0660  0.0000 </r>
        <r>  0.0104  0.2547  0.0051 </r>
       </set>
       <set comment="band 4">
        <r>  0.0000  0.0707  0.0000 </r>
        <r>  0.0000  0.3407  0.0050 </r>
       </set>
       <set comment="band 5">
        <r>  0.1369  0.0487  0.0000 </r>
        <r>  0.0997  0.0958  0.0213 </r>
       </set>
       <set comment="band 6">
        <r>  0.0000  0.1411  0.0000 </r>
        <r>  0.0000  0.0673  0.0505 </r>
       </set>
       <set comment="band 7">
        <r>  0.0087  0.1062  0.0000 </r>
        <r>  0.0184  0.0742  0.0511 </r>
       </set>
       <set comment="band 8">
        <r>  0.0396  0.0685  0.0000 </r>
        <r>  0.0366  0.1434  0.0369 </r>
       </set>
      </set>
      <set comment="kpoint 12">
       <set comment="band 1">
        <r>  0.0664  0.0028  0.0000 </r>
        <r>  0.4142  0.0025  0.0000 </r>
       </set>
       <set comment="band 2">
        <r>  0.0996  0.0302  0.0000 </r>
        <r>  0.1125  0.1914  0.0040 </r>
       </set>
       <set comment="band 3">
        <r>  0.0087  0.0674  0.0000 </r>
        <r>  0.0008  0.2848  0.0064 </r>
       </set>
       <set comment="band 4">
        <r>  0.0000  0.0591  0.0000 </r>
        <r>  0.0000  0.3665  0.0055 </r>
       </set>
       <set comment="band 5">
        <r>  0.1595  0.0451  0.0000 </r>
        <r>  0.1254  0.1151  0.0136 </r>
       </set>
       <set comment="band 6">
        <r>  0.0000  0.1658  0.0000 </r>
        <r>  0.0000  0.0523  0.0492 </r>
       </set>
       <set comment="band 7">
        <r>  0.0149  0.1231  0.0000 </r>
        <r>  0.0339  0.0694  0.0464 </r>
       </set>
       <set comment="band 8">
        <r>  0.0274  0.1108  0.0000 </r>
        <r>  0.0366  0.1399  0.0407 </r>
       </set>
      </set>
      <set comment="kpoint 13">
       <set comment="band 1">
        <r>  0.0574  0.0059  0.0000 </r>
        <r>  0.4330  0.0044  0.0001 </r>
       </set>
       <set comment="band 2">
        <r>  0.1384  0.0167  0.0000 </r>
        <r>  0.1260  0.1647  0.0039 </r>
       </set>
       <set comment="band 3">
        <r>  0.0000  0.0770  0.0000 </r>
        <r>  0.0000  0.2900  0.0041 </r>
       </set>
       <set comment="band 4">
        <r>  0.0000  0.0770  0.0000 </r>
        <r>  0.0000  0.2900  0.0041 </r>
       </set>
       <set comment="band 5">
        <r>  0.0745  0.0656  0.0000 </r>
        <r>  0.0089  0.0487  0.0367 </r>
       </set>
       <set comment="band 6">
        <r>  0.0655  0.0458  0.0000 </r>
        <r>  0.0738  0.0869  0.0283 </r>
       </set>
       <set comment="band 7">
        <r>  0.0000  0.1468  0.0000 </r>
        <r>  0.0000  0.1323  0.0579 </r>
       </set>
       <set comment="band 8">
        <r>  0.0000  0.1468  0.0000 </r>
        <r>  0.0000  0.1323  0.0579 </r>
       </set>
      </set>
      <set comment="kpoint 14">
       <set comment="band 1">
        <r>  0.0438  0.0099  0.0000 </r>
        <r>  0.4651  0.0051  0.0001 </r>
       </set>
       <set comment="band 2">
        <r>  0.1551  0.0144  0.0000 </r>
        <r>  0.0940  0.1501  0.0034 </r>
       </set>
       <set comment="band 3">
        <r>  0.0115  0.0720  0.0000 </r>
        <r>  0.0045  0.2543  0.0039 </r>
       </set>
       <set comment="band 4">
        <r>  0.0000  0.0803  0.0000 </r>
        <r>  0.0000  0.2824  0.0031 </r>
       </set>
       <set comment="band 5">
        <r>  0.0613  0.0568  0.0000 </r>
        <r>  0.0209  0.0580  0.0357 </r>
       </set>
       <set comment="band 6">
        <r>  0.0616  0.0404  0.0000 </r>
        <r>  0.0446  0.0844  0.0345 </r>
       </set>
       <set comment="band 7">
        <r>  0.0245  0.1043  0.0000 </r>
        <r>  0.0345  0.1090  0.0519 </r>
       </set>
       <set comment="band 8">
        <r>  0.0000  0.1255  0.0000 </r>
        <r>  0.0000  0.1231  0.0628 </r>
       </set>
      </set>
      <set comment="kpoint 15">
       <set comment="band 1">
        <r>  0.0245  0.0143  0.0000 </r>
        <r>  0.5159  0.0028  0.0002 </r>
       </set>
       <set comment="band 2">
        <r>  0.1761  0.0122  0.0000 </r>
        <r>  0.0390  0.1426  0.0033 </r>
       </set>
       <set comment="band 3">
        <r>  0.0190  0.0640  0.0000 </r>
        <r>  0.0099  0.2270  0.0031 </r>
       </set>
       <set comment="band 4">
        <r>  0.0000  0.0818  0.0000 </r>
        <r>  0.0000  0.2843  0.0028 </r>
       </set>
       <set comment="band 5">
        <r>  0.0627  0.0451  0.0000 </r>
        <r>  0.0373  0.0516  0.0350 </r>
       </set>
       <set comment="band 6">
        <r>  0.0637  0.0454  0.0000 </r>
        <r>  0.0239  0.1473  0.0371 </r>
       </set>
       <set comment="band 7">
        <r>  0.0190  0.1024  0.0000 </r>
        <r>  0.0424  0.0710  0.0507 </r>
       </set>
       <set comment="band 8">
        <r>  0.0000  0.1048  0.0000 </r>
        <r>  0.0000  0.1008  0.0647 </r>
       </set>
      </set>
      <set comment="kpoint 16">
       <set comment="band 1">
        <r>  0.0212  0.0148  0.0000 </r>
        <r>  0.5267  0.0018  0.0002 </r>
       </set>
       <set comment="band 2">
        <r>  0.1815  0.0125  0.0000 </r>
        <r>  0.0265  0.1409  0.0037 </r>
       </set>
       <set comment="band 3">
        <r>  0.0166  0.0619  0.0000 </r>
        <r>  0.0091  0.2194  0.0022 </r>
       </set>
       <set comment="band 4">
        <r>  0.0000  0.0811  0.0000 </r>
        <r>  0.0000  0.2947  0.0033 </r>
       </set>
       <set comment="band 5">
        <r>  0.0728  0.0452  0.0000 </r>
        <r>  0.0453  0.0543  0.0341 </r>
       </set>
       <set comment="band 6">
        <r>  0.0500  0.0708  0.0000 </r>
        <r>  0.0435  0.1390  0.0373 </r>
       </set>
       <set comment="band 7">
        <r>  0.0000  0.1119  0.0000 </r>
        <r>  0.0000  0.0992  0.0572 </r>
       </set>
       <set comment="band 8">
        <r>  0.0274  0.0744  0.0000 </r>
        <r>  0.0122  0.1400  0.0498 </r>
       </set>
      </set>
      <set comment="kpoint 17">
       <set comment="band 1">
        <r>  0.0397  0.0106  0.0000 </r>
        <r>  0.4795  0.0041  0.0002 </r>
       </set>
       <set comment="band 2">
        <r>  0.1567  0.0177  0.0000 </r>
        <r>  0.0731  0.1456  0.0037 </r>
       </set>
       <set comment="band 3">
        <r>  0.0148  0.0641  0.0000 </r>
        <r>  0.0030  0.2253  0.0029 </r>
       </set>
       <set comment="band 4">
        <r>  0.0000  0.0776  0.0000 </r>
        <r>  0.0000  0.3151  0.0044 </r>
       </set>
       <set comment="band 5">
        <r>  0.0934  0.0525  0.0000 </r>
        <r>  0.0588  0.0718  0.0308 </r>
       </set>
       <set comment="band 6">
        <r>  0.0000  0.1356  0.0000 </r>
        <r>  0.0000  0.0973  0.0481 </r>
       </set>
       <set comment="band 7">
        <r>  0.0077  0.1046  0.0000 </r>
        <r>  0.0562  0.0793  0.0401 </r>
       </set>
       <set comment="band 8">
        <r>  0.0728  0.0420  0.0000 </r>
        <r>  0.0172  0.1749  0.0436 </r>
       </set>
      </set>
      <set comment="kpoint 18">
       <set comment="band 1">
        <r>  0.0295  0.0137  0.0000 </r>
        <r>  0.4968  0.0047  0.0001 </r>
       </set>
       <set comment="band 2">
        <r>  0.1785  0.0071  0.0000 </r>
        <r>  0.0692  0.1437  0.0033 </r>
       </set>
       <set comment="band 3">
        <r>  0.0000  0.0825  0.0000 </r>
        <r>  0.0000  0.2728  0.0020 </r>
       </set>
       <set comment="band 4">
        <r>  0.0000  0.0825  0.0000 </r>
        <r>  0.0000  0.2728  0.0020 </r>
       </set>
       <set comment="band 5">
        <r>  0.0597  0.0506  0.0000 </r>
        <r>  0.0262  0.0320  0.0353 </r>
       </set>
       <set comment="band 6">
        <r>  0.0619  0.0241  0.0000 </r>
        <r>  0.0333  0.0540  0.0375 </r>
       </set>
       <set comment="band 7">
        <r>  0.0000  0.1398  0.0000 </r>
        <r>  0.0000  0.1611  0.0562 </r>
       </set>
       <set comment="band 8">
        <r>  0.0000  0.1398  0.0000 </r>
        <r>  0.0000  0.1611  0.0562 </r>
       </set>
      </set>
      <set comment="kpoint 19">
       <set comment="band 1">
        <r>  0.0096  0.0181  0.0000 </r>
        <r>  0.5456  0.0017  0.0001 </r>
       </set>
       <set comment="band 2">
        <r>  0.2046  0.0026  0.0000 </r>
        <r>  0.0219  0.1403  0.0035 </r>
       </set>
       <set comment="band 3">
        <r>  0.0040  0.0751  0.0000 </r>
        <r>  0.0005  0.2417  0.0022 </r>
       </set>
       <set comment="band 4">
        <r>  0.0000  0.0835  0.0000 </r>
        <r>  0.0000  0.2718  0.0016 </r>
       </set>
       <set comment="band 5">
        <r>  0.0476  0.0438  0.0000 </r>
        <r>  0.0359  0.0338  0.0350 </r>
       </set>
       <set comment="band 6">
        <r>  0.0645  0.0342  0.0000 </r>
        <r>  0.0207  0.0804  0.0390 </r>
       </set>
       <set comment="band 7">
        <r>  0.0234  0.1206  0.0000 </r>
        <r>  0.0313  0.1506  0.0386 </r>
       </set>
       <set comment="band 8">
        <r>  0.0000  0.1208  0.0000 </r>
        <r>  0.0000  0.1460  0.0562 </r>
       </set>
      </set>
      <set comment="kpoint 20">
       <set comment="band 1">
        <r>  0.0048  0.0187  0.0000 </r>
        <r>  0.5616  0.0004  0.0001 </r>
       </set>
       <set comment="band 2">
        <r>  0.2185  0.0023  0.0000 </r>
        <r>  0.0056  0.1370  0.0043 </r>
       </set>
       <set comment="band 3">
        <r>  0.0002  0.0678  0.0000 </r>
        <r>  0.0003  0.2214  0.0013 </r>
       </set>
       <set comment="band 4">
        <r>  0.0000  0.0831  0.0000 </r>
        <r>  0.0000  0.2785  0.0022 </r>
       </set>
       <set comment="band 5">
        <r>  0.0570  0.0401  0.0000 </r>
        <r>  0.0371  0.0392  0.0355 </r>
       </set>
       <set comment="band 6">
        <r>  0.0484  0.0476  0.0000 </r>
        <r>  0.0144  0.1203  0.0447 </r>
       </set>
       <set comment="band 7">
        <r>  0.0000  0.1255  0.0000 </r>
        <r>  0.0000  0.1412  0.0493 </r>
       </set>
       <set comment="band 8">
        <r>  0.0150  0.1415  0.0000 </r>
        <r>  0.0600  0.1190  0.0054 </r>
       </set>
      </set>
      <set comment="kpoint 21">
       <set comment="band 1">
        <r>  0.0000  0.0203  0.0000 </r>
        <r>  0.5669  0.0000  0.0001 </r>
       </set>
       <set comment="band 2">
        <r>  0.2118  0.0000  0.0000 </r>
        <r>  0.0000  0.1421  0.0031 </r>
       </set>
       <set comment="band 3">
        <r>  0.0000  0.0840  0.0000 </r>
        <r>  0.0000  0.2681  0.0012 </r>
       </set>
       <set comment="band 4">
        <r>  0.0000  0.0840  0.0000 </r>
        <r>  0.0000  0.2681  0.0012 </r>
       </set>
       <set comment="band 5">
        <r>  0.0000  0.0650  0.0000 </r>
        <r>  0.0601  0.0000  0.0315 </r>
       </set>
       <set comment="band 6">
        <r>  0.1203  0.0000  0.0000 </r>
        <r>  0.0000  0.0762  0.0414 </r>
       </set>
       <set comment="band 7">
        <r>  0.0000  0.1522  0.0000 </r>
        <r>  0.0000  0.2227  0.0101 </r>
       </set>
       <set comment="band 8">
        <r>  0.0000  0.1522  0.0000 </r>
        <r>  0.0000  0.2227  0.0101 </r>
       </set>
      </set>
      <set comment="kpoint 22">
       <set comment="band 1">
        <r>  0.0533  0.0071  0.0000 </r>
        <r>  0.4440  0.0045  0.0001 </r>
       </set>
       <set comment="band 2">
        <r>  0.1344  0.0210  0.0000 </r>
        <r>  0.1058  0.1590  0.0035 </r>
       </set>
       <set comment="band 3">
        <r>  0.0127  0.0697  0.0000 </r>
        <r>  0.0017  0.2507  0.0045 </r>
       </set>
       <set comment="band 4">
        <r>  0.0051  0.0730  0.0000 </r>
        <r>  0.0042  0.3017  0.0050 </r>
       </set>
       <set comment="band 5">
        <r>  0.0824  0.0477  0.0000 </r>
        <r>  0.0004  0.1291  0.0346 </r>
       </set>
       <set comment="band 6">
        <r>  0.0684  0.1035  0.0000 </r>
        <r>  0.1114  0.0709  0.0230 </r>
       </set>
       <set comment="band 7">
        <r>  0.0006  0.0670  0.0000 </r>
        <r>  0.0002  0.0596  0.0623 </r>
       </set>
       <set comment="band 8">
        <r>  0.0055  0.1337  0.0000 </r>
        <r>  0.0072  0.1203  0.0550 </r>
       </set>
      </set>
      <set comment="kpoint 23">
       <set comment="band 1">
        <r>  0.0359  0.0116  0.0000 </r>
        <r>  0.4888  0.0038  0.0002 </r>
       </set>
       <set comment="band 2">
        <r>  0.1564  0.0173  0.0000 </r>
        <r>  0.0602  0.1461  0.0033 </r>
       </set>
       <set comment="band 3">
        <r>  0.0221  0.0634  0.0000 </r>
        <r>  0.0107  0.2307  0.0034 </r>
       </set>
       <set comment="band 4">
        <r>  0.0029  0.0772  0.0000 </r>
        <r>  0.0017  0.2846  0.0044 </r>
       </set>
       <set comment="band 5">
        <r>  0.0967  0.0386  0.0000 </r>
        <r>  0.0435  0.1271  0.0287 </r>
       </set>
       <set comment="band 6">
        <r>  0.0187  0.0990  0.0000 </r>
        <r>  0.0416  0.0551  0.0429 </r>
       </set>
       <set comment="band 7">
        <r>  0.0263  0.0704  0.0000 </r>
        <r>  0.0140  0.0970  0.0495 </r>
       </set>
       <set comment="band 8">
        <r>  0.0065  0.1015  0.0000 </r>
        <r>  0.0108  0.1002  0.0647 </r>
       </set>
      </set>
      <set comment="kpoint 24">
       <set comment="band 1">
        <r>  0.0230  0.0143  0.0000 </r>
        <r>  0.5240  0.0016  0.0002 </r>
       </set>
       <set comment="band 2">
        <r>  0.1692  0.0153  0.0000 </r>
        <r>  0.0221  0.1439  0.0031 </r>
       </set>
       <set comment="band 3">
        <r>  0.0279  0.0600  0.0000 </r>
        <r>  0.0169  0.2250  0.0031 </r>
       </set>
       <set comment="band 4">
        <r>  0.0010  0.0791  0.0000 </r>
        <r>  0.0001  0.2787  0.0039 </r>
       </set>
       <set comment="band 5">
        <r>  0.1055  0.0356  0.0000 </r>
        <r>  0.0546  0.1259  0.0269 </r>
       </set>
       <set comment="band 6">
        <r>  0.0000  0.0887  0.0000 </r>
        <r>  0.0239  0.0403  0.0499 </r>
       </set>
       <set comment="band 7">
        <r>  0.0223  0.1033  0.0000 </r>
        <r>  0.0118  0.1331  0.0517 </r>
       </set>
       <set comment="band 8">
        <r>  0.0267  0.0832  0.0000 </r>
        <r>  0.0133  0.1471  0.0427 </r>
       </set>
      </set>
      <set comment="kpoint 25">
       <set comment="band 1">
        <r>  0.0259  0.0143  0.0000 </r>
        <r>  0.5084  0.0039  0.0001 </r>
       </set>
       <set comment="band 2">
        <r>  0.1851  0.0080  0.0000 </r>
        <r>  0.0574  0.1411  0.0037 </r>
       </set>
       <set comment="band 3">
        <r>  0.0093  0.0707  0.0000 </r>
        <r>  0.0017  0.2415  0.0025 </r>
       </set>
       <set comment="band 4">
        <r>  0.0011  0.0792  0.0000 </r>
        <r>  0.0003  0.2580  0.0034 </r>
       </set>
       <set comment="band 5">
        <r>  0.0387  0.0611  0.0000 </r>
        <r>  0.0248  0.0730  0.0352 </r>
       </set>
       <set comment="band 6">
        <r>  0.0712  0.0306  0.0000 </r>
        <r>  0.0307  0.0877  0.0385 </r>
       </set>
       <set comment="band 7">
        <r>  0.0219  0.0986  0.0000 </r>
        <r>  0.0305  0.0981  0.0506 </r>
       </set>
       <set comment="band 8">
        <r>  0.0033  0.1413  0.0000 </r>
        <r>  0.0043  0.1594  0.0524 </r>
       </set>
      </set>
      <set comment="kpoint 26">
       <set comment="band 1">
        <r>  0.0086  0.0178  0.0000 </r>
        <r>  0.5528  0.0010  0.0001 </r>
       </set>
       <set comment="band 2">
        <r>  0.2129  0.0041  0.0000 </r>
        <r>  0.0142  0.1369  0.0043 </r>
       </set>
       <set comment="band 3">
        <r>  0.0056  0.0655  0.0000 </r>
        <r>  0.0025  0.2260  0.0015 </r>
       </set>
       <set comment="band 4">
        <r>  0.0015  0.0789  0.0000 </r>
        <r>  0.0003  0.2504  0.0034 </r>
       </set>
       <set comment="band 5">
        <r>  0.0488  0.0469  0.0000 </r>
        <r>  0.0310  0.0813  0.0358 </r>
       </set>
       <set comment="band 6">
        <r>  0.0603  0.0365  0.0000 </r>
        <r>  0.0133  0.1438  0.0425 </r>
       </set>
       <set comment="band 7">
        <r>  0.0127  0.1058  0.0000 </r>
        <r>  0.0363  0.0634  0.0481 </r>
       </set>
       <set comment="band 8">
        <r>  0.0244  0.1131  0.0000 </r>
        <r>  0.0170  0.1223  0.0459 </r>
       </set>
      </set>
      <set comment="kpoint 27">
       <set comment="band 1">
        <r>  0.0159  0.0161  0.0000 </r>
        <r>  0.5367  0.0019  0.0001 </r>
       </set>
       <set comment="band 2">
        <r>  0.2035  0.0071  0.0000 </r>
        <r>  0.0278  0.1366  0.0044 </r>
       </set>
       <set comment="band 3">
        <r>  0.0050  0.0644  0.0000 </r>
        <r>  0.0021  0.2223  0.0014 </r>
       </set>
       <set comment="band 4">
        <r>  0.0027  0.0780  0.0000 </r>
        <r>  0.0012  0.2606  0.0039 </r>
       </set>
       <set comment="band 5">
        <r>  0.0653  0.0420  0.0000 </r>
        <r>  0.0317  0.1027  0.0346 </r>
       </set>
       <set comment="band 6">
        <r>  0.0009  0.1036  0.0000 </r>
        <r>  0.0441  0.0722  0.0392 </r>
       </set>
       <set comment="band 7">
        <r>  0.0640  0.0455  0.0000 </r>
        <r>  0.0061  0.1364  0.0534 </r>
       </set>
       <set comment="band 8">
        <r>  0.0209  0.1123  0.0000 </r>
        <r>  0.0207  0.1008  0.0452 </r>
       </set>
      </set>
      <set comment="kpoint 28">
       <set comment="band 1">
        <r>  0.0000  0.0200  0.0000 </r>
        <r>  0.5696  0.0000  0.0001 </r>
       </set>
       <set comment="band 2">
        <r>  0.2205  0.0001  0.0000 </r>
        <r>  0.0000  0.1389  0.0039 </r>
       </set>
       <set comment="band 3">
        <r>  0.0053  0.0685  0.0000 </r>
        <r>  0.0000  0.2497  0.0011 </r>
       </set>
       <set comment="band 4">
        <r>  0.0000  0.0831  0.0000 </r>
        <r>  0.0009  0.2350  0.0032 </r>
       </set>
       <set comment="band 5">
        <r>  0.0000  0.0653  0.0000 </r>
        <r>  0.0522  0.0448  0.0311 </r>
       </set>
       <set comment="band 6">
        <r>  0.1038  0.0201  0.0000 </r>
        <r>  0.0000  0.1047  0.0442 </r>
       </set>
       <set comment="band 7">
        <r>  0.0000  0.1077  0.0000 </r>
        <r>  0.0375  0.1252  0.0287 </r>
       </set>
       <set comment="band 8">
        <r>  0.0389  0.1080  0.0000 </r>
        <r>  0.0000  0.1300  0.0719 </r>
       </set>
      </set>
      <set comment="kpoint 29">
       <set comment="band 1">
        <r>  0.0000  0.0196  0.0000 </r>
        <r>  0.5723  0.0000  0.0000 </r>
       </set>
       <set comment="band 2">
        <r>  0.2334  0.0000  0.0000 </r>
        <r>  0.0000  0.1340  0.0050 </r>
       </set>
       <set comment="band 3">
        <r>  0.0000  0.0597  0.0000 </r>
        <r>  0.0000  0.2431  0.0000 </r>
       </set>
       <set comment="band 4">
        <r>  0.0000  0.0828  0.0000 </r>
        <r>  0.0000  0.2152  0.0044 </r>
       </set>
       <set comment="band 5">
        <r>  0.0000  0.0030  0.0000 </r>
        <r>  0.0000  0.1685  0.0383 </r>
       </set>
       <set comment="band 6">
        <r>  0.1438  0.0000  0.0000 </r>
        <r>  0.0000  0.2289  0.0392 </r>
       </set>
       <set comment="band 7">
        <r>  0.0000  0.1600  0.0000 </r>
        <r>  0.0955  0.0000  0.0259 </r>
       </set>
       <set comment="band 8">
        <r>  0.0000  0.1142  0.0000 </r>
        <r>  0.0000  0.0013  0.0778 </r>
       </set>
      </set>
     </set>
    </set>
   </array>
  </projected>
 </calculation>
 <structure name="finalpos" >
  <crystal>
   <varray name="basis" >
    <v>       0.00000000       3.11616693       3.11616693 </v>
    <v>       3.11616693       0.00000000       3.11616693 </v>
    <v>       3.11616693       3.11616693       0.00000000 </v>
   </varray>
   <i name="volume">     60.51905489 </i>
   <varray name="rec_basis" >
    <v>      -0.16045354       0.16045354       0.16045354 </v>
    <v>       0.16045354      -0.16045354       0.16045354 </v>
    <v>       0.16045354       0.16045354      -0.16045354 </v>
   </varray>
  </crystal>
  <varray name="positions" >
   <v>       0.00000000       0.00000000       0.00000000 </v>
   <v>       0.25000000       0.25000000       0.25000000 </v>
  </varray>
 </structure>
</modeling>
