   2   2   1   0
  0.1206995E+02  0.3244020E-09  0.3244020E-09  0.3244020E-09  0.5000000E-15
  1.000000000000000E-004
  CAR 
 GaN                                     
     17.33977882    -14.36263511   11      3.07369255      1.00000000
    -14.363  0.0000E+00  0.0000E+00
    -11.192  0.1113E-03  0.5447E-02
     -8.022  0.0000E+00  0.2000E-01
     -4.852  0.0000E+00  0.2000E-01
     -1.682  0.2936E-03  0.3704E-01
      1.489  0.5818E-03  0.7227E-01
      4.659  0.0000E+00  0.8002E-01
      7.829  0.9545E-06  0.9009E-01
     10.999  0.6372E-04  0.1186E+00
     14.170  0.1013E-04  0.1515E+00
     17.340  0.0000E+00  0.1600E+00
     17.33977882    -14.36263511   11      3.07369255      1.00000000
    -14.363  0.0000E+00  0.0000E+00  0.0000E+00
    -11.192  0.1813E-02  0.1054E-02  0.2471E-03
     -8.022  0.0000E+00  0.0000E+00  0.0000E+00
     -4.852  0.0000E+00  0.0000E+00  0.0000E+00
     -1.682  0.6651E-02  0.3284E-02  0.1761E-02
      1.489  0.3394E-03  0.1116E-01  0.4343E-02
      4.659  0.0000E+00  0.0000E+00  0.0000E+00
      7.829  0.8125E-05  0.2029E-04  0.1362E-04
     10.999  0.4700E-03  0.9210E-03  0.4115E-03
     14.170  0.1911E-10  0.4279E-03  0.1355E-03
     17.340  0.0000E+00  0.0000E+00  0.0000E+00
     17.33977882    -14.36263511   11      3.07369255      1.00000000
    -14.363  0.0000E+00  0.0000E+00  0.0000E+00
    -11.192  0.5927E-02  0.4780E-04  0.0000E+00
     -8.022  0.0000E+00  0.0000E+00  0.0000E+00
     -4.852  0.0000E+00  0.0000E+00  0.0000E+00
     -1.682  0.2791E-02  0.8405E-02  0.0000E+00
      1.489  0.2000E-03  0.3116E-01  0.0000E+00
      4.659  0.0000E+00  0.0000E+00  0.0000E+00
      7.829  0.5543E-05  0.7660E-05  0.0000E+00
     10.999  0.1224E-04  0.2160E-02  0.0000E+00
     14.170  0.2088E-10  0.1510E-03  0.0000E+00
     17.340  0.0000E+00  0.0000E+00  0.0000E+00
