    2    2  100    1
  0.1206995E+02  0.3244020E-09  0.3244020E-09  0.3244020E-09  0.5000000E-15
  1.000000000000000E-004
  CAR 
 GaN                                     
      8     56      8
 
  0.0000000E+00  0.0000000E+00  0.0000000E+00  0.7513148E-03
    1      -12.921616   1.000000
    2        2.503752   1.000000
    3        2.503752   1.000000
    4        2.503753   1.000000
    5        3.963966   0.000000
    6       12.582501   0.000000
    7       12.582501   0.000000
    8       12.582501   0.000000
 
  0.9090909E-01  0.2589011E-17 -0.2158277E-17  0.6010518E-02
    1      -12.802756   1.000000
    2        1.517826   1.000000
    3        2.421732   1.000000
    4        2.421732   1.000000
    5        4.755118   0.000000
    6       12.156192   0.000000
    7       12.711687   0.000000
    8       12.711687   0.000000
 
  0.1818182E+00  0.5178021E-17 -0.4316553E-17  0.6010518E-02
    1      -12.457877   1.000000
    2       -0.068588   1.000000
    3        2.213612   1.000000
    4        2.213613   1.000000
    5        5.761486   0.000000
    6       11.428468   0.000000
    7       12.952553   0.000000
    8       12.952553   0.000000
 
  0.2727273E+00 -0.7130317E-17  0.8422519E-17  0.6010518E-02
    1      -11.930967   1.000000
    2       -1.701487   1.000000
    3        1.963417   1.000000
    4        1.963417   1.000000
    5        6.460138   0.000000
    6       10.997256   0.000000
    7       13.011164   0.000000
    8       13.011164   0.000000
 
  0.3636364E+00  0.1035604E-16 -0.8633107E-17  0.6010518E-02
    1      -11.330472   1.000000
    2       -3.123927   1.000000
    3        1.751909   1.000000
    4        1.751910   1.000000
    5        6.782568   0.000000
    6       10.939132   0.000000
    7       12.852230   0.000000
    8       12.852230   0.000000
 
  0.4545455E+00  0.2534844E-16  0.8639048E-17  0.6010518E-02
    1      -10.885173   1.000000
    2       -4.006327   1.000000
    3        1.633267   1.000000
    4        1.633268   1.000000
    5        6.869782   0.000000
    6       11.009894   0.000000
    7       12.697779   0.000000
    8       12.697779   0.000000
 
  0.9090909E-01  0.9090909E-01 -0.2171925E-17  0.4507889E-02
    1      -12.763236   1.000000
    2        1.489278   1.000000
    3        2.258019   1.000000
    4        2.258020   1.000000
    5        4.998345   0.000000
    6       11.878685   0.000000
    7       12.836581   0.000000
    8       12.836581   0.000000
 
  0.1818182E+00  0.9090909E-01 -0.2772474E-18  0.1803156E-01
    1      -12.493794   1.000000
    2        0.321839   1.000000
    3        1.988494   1.000000
    4        2.084476   1.000000
    5        5.844641   0.000000
    6       11.246848   0.000000
    7       12.973300   0.000000
    8       13.123182   0.000000
 
  0.2727273E+00  0.9090909E-01 -0.3455085E-17  0.1803156E-01
    1      -12.025946   1.000000
    2       -1.189297   1.000000
    3        1.714063   1.000000
    4        1.827610   1.000000
    5        6.634791   0.000000
    6       10.816399   0.000000
    7       12.770479   0.000000
    8       13.296878   0.000000
 
  0.3636364E+00  0.9090909E-01 -0.6632924E-17  0.1803156E-01
    1      -11.441635   1.000000
    2       -2.638997   1.000000
    3        1.515020   1.000000
    4        1.518341   1.000000
    5        7.123370   0.000000
    6       10.657285   0.000000
    7       12.537921   0.000000
    8       13.216428   0.000000
 
  0.4545455E+00  0.9090909E-01 -0.7771639E-17  0.1803156E-01
    1      -10.922565   1.000000
    2       -3.700585   1.000000
    3        1.243310   1.000000
    4        1.449147   1.000000
    5        7.324247   0.000000
    6       10.587234   0.000000
    7       12.555920   0.000000
    8       13.025179   0.000000
 
 -0.4545455E+00  0.9090909E-01 -0.1598357E-16  0.1803156E-01
    1      -10.757053   1.000000
    2       -4.006365   1.000000
    3        1.081395   1.000000
    4        1.518841   1.000000
    5        7.376676   0.000000
    6       10.578171   0.000000
    7       12.595803   0.000000
    8       12.915355   0.000000
 
 -0.3636364E+00  0.9090909E-01 -0.9361866E-17  0.1803156E-01
    1      -11.072486   1.000000
    2       -3.410385   1.000000
    3        1.069425   1.000000
    4        1.708840   1.000000
    5        7.318357   0.000000
    6       10.667054   0.000000
    7       12.515790   0.000000
    8       12.965012   0.000000
 
 -0.2727273E+00  0.9090909E-01  0.9494575E-17  0.1803156E-01
    1      -11.642022   1.000000
    2       -2.183657   1.000000
    3        1.223299   1.000000
    4        1.972367   1.000000
    5        7.035961   0.000000
    6       10.820326   0.000000
    7       12.527194   0.000000
    8       13.099495   0.000000
 
 -0.1818182E+00  0.9090909E-01 -0.7561051E-17  0.1803156E-01
    1      -12.201246   1.000000
    2       -0.706327   1.000000
    3        1.537146   1.000000
    4        2.236490   1.000000
    5        6.396769   0.000000
    6       11.125101   0.000000
    7       12.735364   0.000000
    8       13.087253   0.000000
 
 -0.9090909E-01  0.9090909E-01  0.5178021E-17  0.9015778E-02
    1      -12.608452   1.000000
    2        0.663388   1.000000
    3        1.989119   1.000000
    4        2.411211   1.000000
    5        5.494926   0.000000
    6       11.659943   0.000000
    7       12.852675   0.000000
    8       12.857722   0.000000
 
  0.1818182E+00  0.1818182E+00 -0.4343849E-17  0.4507889E-02
    1      -12.304895   1.000000
    2        0.062469   1.000000
    3        1.654962   1.000000
    4        1.654962   1.000000
    5        6.342942   0.000000
    6       10.525194   0.000000
    7       13.504142   0.000000
    8       13.504142   0.000000
 
  0.2727273E+00  0.1818182E+00  0.5842205E-18  0.1803156E-01
    1      -11.913353   1.000000
    2       -0.935822   1.000000
    3        1.313286   1.000000
    4        1.333009   1.000000
    5        6.940308   0.000000
    6       10.054596   0.000000
    7       13.153761   0.000000
    8       13.840945   0.000000
 
  0.3636364E+00  0.1818182E+00 -0.5544948E-18  0.1803156E-01
    1      -11.382230   1.000000
    2       -2.155397   1.000000
    3        0.863908   1.000000
    4        1.116162   1.000000
    5        7.488794   0.000000
    6        9.979471   0.000000
    7       12.469142   0.000000
    8       13.921726   0.000000
 
  0.4545455E+00  0.1818182E+00  0.1263941E-16  0.1803156E-01
    1      -10.852007   1.000000
    2       -3.200776   1.000000
    3        0.391293   1.000000
    4        1.055852   1.000000
    5        7.886778   0.000000
    6        9.963195   0.000000
    7       12.391609   0.000000
    8       13.777043   0.000000
 
 -0.4545455E+00  0.1818182E+00 -0.4638681E-17  0.1803156E-01
    1      -10.567605   1.000000
    2       -3.702437   1.000000
    3        0.034080   1.000000
    4        1.163086   1.000000
    5        8.200324   0.000000
    6        9.837530   0.000000
    7       12.530671   0.000000
    8       13.588476   0.000000
 
 -0.3636364E+00  0.1818182E+00 -0.1512210E-16  0.1803156E-01
    1      -10.723961   1.000000
    2       -3.425971   1.000000
    3       -0.110431   1.000000
    4        1.411552   1.000000
    5        8.362743   0.000000
    6        9.891292   0.000000
    7       12.266260   0.000000
    8       13.484761   0.000000
 
 -0.2727273E+00  0.1818182E+00 -0.8500398E-17  0.1803156E-01
    1      -11.206654   1.000000
    2       -2.550547   1.000000
    3        0.047750   1.000000
    4        1.739223   1.000000
    5        8.087040   0.000000
    6       10.336164   0.000000
    7       11.856312   0.000000
    8       13.458453   0.000000
 
 -0.1818182E+00  0.1818182E+00  0.1035604E-16  0.9015778E-02
    1      -11.756722   1.000000
    2       -1.532189   1.000000
    3        0.620657   1.000000
    4        2.051225   1.000000
    5        7.334366   0.000000
    6       10.821952   0.000000
    7       12.026137   0.000000
    8       13.347134   0.000000
 
  0.2727273E+00  0.2727273E+00 -0.6515774E-17  0.4507889E-02
    1      -11.607480   1.000000
    2       -1.307305   1.000000
    3        0.958721   1.000000
    4        0.958721   1.000000
    5        6.974150   0.000000
    6        9.481127   0.000000
    7       13.707629   0.000000
    8       14.395964   0.000000
 
  0.3636364E+00  0.2727273E+00 -0.1345166E-16  0.1803156E-01
    1      -11.158986   1.000000
    2       -2.080198   1.000000
    3        0.497026   1.000000
    4        0.698348   1.000000
    5        7.070847   0.000000
    6        9.416726   0.000000
    7       13.048399   0.000000
    8       14.709397   0.000000
 
  0.4545455E+00  0.2727273E+00  0.7618097E-18  0.1803156E-01
    1      -10.678684   1.000000
    2       -2.831177   1.000000
    3       -0.200433   1.000000
    4        0.612456   1.000000
    5        7.391303   0.000000
    6        9.713309   0.000000
    7       12.728193   0.000000
    8       14.696322   0.000000
 
 -0.4545455E+00  0.2727273E+00  0.1327841E-16  0.1803156E-01
    1      -10.356830   1.000000
    2       -3.262335   1.000000
    3       -0.854349   1.000000
    4        0.718027   1.000000
    5        7.845965   0.000000
    6        9.947642   0.000000
    7       12.759612   0.000000
    8       14.473096   0.000000
 
 -0.3636364E+00  0.2727273E+00 -0.5361499E-17  0.1803156E-01
    1      -10.378680   1.000000
    2       -3.205849   1.000000
    3       -1.184762   1.000000
    4        0.991497   1.000000
    5        8.450078   0.000000
    6        9.837571   0.000000
    7       12.487011   0.000000
    8       14.179061   0.000000
 
 -0.2727273E+00  0.2727273E+00 -0.1426063E-16  0.9015778E-02
    1      -10.726547   1.000000
    2       -2.867125   1.000000
    3       -0.907446   1.000000
    4        1.367697   1.000000
    5        8.910230   0.000000
    6        9.636452   0.000000
    7       11.942255   0.000000
    8       13.851079   0.000000
 
  0.3636364E+00  0.3636364E+00 -0.8687698E-17  0.4507889E-02
    1      -10.814968   1.000000
    2       -2.513609   1.000000
    3        0.387394   1.000000
    4        0.387395   1.000000
    5        6.491301   0.000000
    6        9.142469   0.000000
    7       13.487012   0.000000
    8       15.294470   0.000000
 
  0.4545455E+00  0.3636364E+00 -0.1360975E-16  0.1803156E-01
    1      -10.442811   1.000000
    2       -2.983991   1.000000
    3       -0.103157   1.000000
    4        0.255950   1.000000
    5        6.488009   0.000000
    6        9.253907   0.000000
    7       13.480771   0.000000
    8       15.487113   0.000000
 
 -0.4545455E+00  0.3636364E+00 -0.2589993E-16  0.1803156E-01
    1      -10.184051   1.000000
    2       -3.166356   1.000000
    3       -0.931249   1.000000
    4        0.330446   1.000000
    5        6.970620   0.000000
    6        9.722872   0.000000
    7       13.455556   0.000000
    8       15.291900   0.000000
 
 -0.3636364E+00  0.3636364E+00  0.2071209E-16  0.9015778E-02
    1      -10.162302   1.000000
    2       -3.073977   1.000000
    3       -1.532422   1.000000
    4        0.595399   1.000000
    5        7.661318   0.000000
    6       10.089385   0.000000
    7       13.120275   0.000000
    8       14.822714   0.000000
 
  0.4545455E+00  0.4545455E+00 -0.1085962E-16  0.4507889E-02
    1      -10.226008   1.000000
    2       -3.303321   1.000000
    3        0.072204   1.000000
    4        0.072204   1.000000
    5        5.956733   0.000000
    6        8.982704   0.000000
    7       13.827909   0.000000
    8       15.898760   0.000000
 
 -0.4545455E+00  0.4545455E+00 -0.6398551E-17  0.9015778E-02
    1      -10.125581   1.000000
    2       -3.357952   1.000000
    3       -0.321479   1.000000
    4        0.098814   1.000000
    5        6.210960   0.000000
    6        9.183742   0.000000
    7       13.838479   0.000000
    8       15.795068   0.000000
 
  0.2727273E+00  0.1818182E+00  0.9090909E-01  0.1803156E-01
    1      -12.162233   1.000000
    2       -0.547775   1.000000
    3        1.342053   1.000000
    4        1.977776   1.000000
    5        6.600516   0.000000
    6       10.725321   0.000000
    7       12.826221   0.000000
    8       13.408737   0.000000
 
  0.3636364E+00  0.1818182E+00  0.9090909E-01  0.3606311E-01
    1      -11.659423   1.000000
    2       -1.744098   1.000000
    3        0.798098   1.000000
    4        1.742153   1.000000
    5        7.365569   0.000000
    6       10.446112   0.000000
    7       12.256838   0.000000
    8       13.592484   0.000000
 
  0.4545455E+00  0.1818182E+00  0.9090909E-01  0.3606311E-01
    1      -11.093900   1.000000
    2       -2.933060   1.000000
    3        0.489086   1.000000
    4        1.453326   1.000000
    5        7.872856   0.000000
    6       10.222052   0.000000
    7       12.133400   0.000000
    8       13.532362   0.000000
 
 -0.4545455E+00  0.1818182E+00  0.9090909E-01  0.3606311E-01
    1      -10.681894   1.000000
    2       -3.702830   1.000000
    3        0.362988   1.000000
    4        1.256956   1.000000
    5        8.094500   0.000000
    6        9.988271   0.000000
    7       12.389184   0.000000
    8       13.434547   0.000000
 
  0.3636364E+00  0.2727273E+00  0.9090909E-01  0.1803156E-01
    1      -11.489460   1.000000
    2       -1.676875   1.000000
    3        0.614350   1.000000
    4        1.178300   1.000000
    5        7.385100   0.000000
    6        9.753264   0.000000
    7       12.644942   0.000000
    8       14.261467   0.000000
 
  0.4545455E+00  0.2727273E+00  0.9090909E-01  0.3606311E-01
    1      -10.975441   1.000000
    2       -2.541491   1.000000
    3        0.034465   1.000000
    4        0.892130   1.000000
    5        7.889492   0.000000
    6        9.803817   0.000000
    7       12.158952   0.000000
    8       14.351904   0.000000
 
 -0.4545455E+00  0.2727273E+00  0.9090909E-01  0.3606311E-01
    1      -10.539244   1.000000
    2       -3.236487   1.000000
    3       -0.402166   1.000000
    4        0.728024   1.000000
    5        8.342028   0.000000
    6        9.783852   0.000000
    7       12.241222   0.000000
    8       14.202678   0.000000
 
 -0.3636364E+00  0.2727273E+00  0.9090909E-01  0.3606311E-01
    1      -10.410350   1.000000
    2       -3.425648   1.000000
    3       -0.667410   1.000000
    4        0.813273   1.000000
    5        8.811541   0.000000
    6        9.529264   0.000000
    7       12.311337   0.000000
    8       14.062148   0.000000
 
 -0.2727273E+00  0.2727273E+00  0.9090909E-01  0.3606311E-01
    1      -10.676089   1.000000
    2       -3.024302   1.000000
    3       -0.639016   1.000000
    4        1.099434   1.000000
    5        8.946207   0.000000
    6        9.547012   0.000000
    7       11.888255   0.000000
    8       14.009821   0.000000
 
 -0.1818182E+00  0.2727273E+00  0.9090909E-01  0.1803156E-01
    1      -11.165076   1.000000
    2       -2.355910   1.000000
    3       -0.146800   1.000000
    4        1.464272   1.000000
    5        8.271622   0.000000
    6       10.081548   0.000000
    7       11.706579   0.000000
    8       13.895095   0.000000
 
  0.4545455E+00  0.3636364E+00  0.9090909E-01  0.1803156E-01
    1      -10.737937   1.000000
    2       -2.618366   1.000000
    3        0.036129   1.000000
    4        0.376979   1.000000
    5        7.096855   0.000000
    6        9.472787   0.000000
    7       12.904417   0.000000
    8       14.984220   0.000000
 
 -0.4545455E+00  0.3636364E+00  0.9090909E-01  0.3606311E-01
    1      -10.356615   1.000000
    2       -3.011888   1.000000
    3       -0.642292   1.000000
    4        0.193411   1.000000
    5        7.514550   0.000000
    6        9.827381   0.000000
    7       12.787718   0.000000
    8       14.716252   0.000000
 
 -0.3636364E+00  0.3636364E+00  0.9090909E-01  0.3606311E-01
    1      -10.186107   1.000000
    2       -3.100335   1.000000
    3       -1.287098   1.000000
    4        0.320484   1.000000
    5        8.081187   0.000000
    6       10.081998   0.000000
    7       12.739497   0.000000
    8       14.347845   0.000000
 
 -0.2727273E+00  0.3636364E+00  0.9090909E-01  0.1803156E-01
    1      -10.319461   1.000000
    2       -3.019975   1.000000
    3       -1.370918   1.000000
    4        0.662329   1.000000
    5        8.760078   0.000000
    6        9.828679   0.000000
    7       12.211375   0.000000
    8       14.293193   0.000000
 
 -0.4545455E+00  0.4545455E+00  0.9090909E-01  0.1803156E-01
    1      -10.193075   1.000000
    2       -3.215677   1.000000
    3       -0.249541   1.000000
    4       -0.145486   1.000000
    5        6.626046   0.000000
    6        9.394752   0.000000
    7       13.622810   0.000000
    8       15.089729   0.000000
 
 -0.3636364E+00  0.4545455E+00  0.9090909E-01  0.1803156E-01
    1      -10.095678   1.000000
    2       -3.156339   1.000000
    3       -0.961390   1.000000
    4       -0.046310   1.000000
    5        7.279508   0.000000
    6        9.855612   0.000000
    7       13.561248   0.000000
    8       14.330959   0.000000
 
 -0.4545455E+00  0.3636364E+00  0.1818182E+00  0.1803156E-01
    1      -10.542157   1.000000
    2       -2.855420   1.000000
    3       -0.707614   1.000000
    4        0.471028   1.000000
    5        8.469042   0.000000
    6        9.873737   0.000000
    7       11.864390   0.000000
    8       14.474725   0.000000
 
 -0.3636364E+00  0.3636364E+00  0.1818182E+00  0.3606311E-01
    1      -10.246904   1.000000
    2       -3.068907   1.000000
    3       -1.092800   1.000000
    4        0.136331   1.000000
    5        8.828475   0.000000
    6        9.926828   0.000000
    7       12.075753   0.000000
    8       14.215705   0.000000
 
 -0.3636364E+00  0.4545455E+00  0.1818182E+00  0.1803156E-01
    1      -10.124702   1.000000
    2       -3.022251   1.000000
    3       -0.876940   1.000000
    4       -0.449693   1.000000
    5        8.082249   0.000000
    6       10.161847   0.000000
    7       12.732725   0.000000
    8       13.977958   0.000000
 
 -0.2727273E+00  0.4545455E+00  0.1818182E+00  0.1803156E-01
    1      -10.083223   1.000000
    2       -2.951562   1.000000
    3       -1.239757   1.000000
    4       -0.394643   1.000000
    5        8.611109   0.000000
    6       10.337291   0.000000
    7       12.439913   0.000000
    8       13.700023   0.000000
