       N       E                     dE             d eps       ncg     rms          rms(c)
DAV:   1     0.285330650799E+02    0.28533E+02   -0.57459E+03   896   0.129E+03
DAV:   2    -0.130932904102E+02   -0.41626E+02   -0.40799E+02  1320   0.216E+02
DAV:   3    -0.141550925112E+02   -0.10618E+01   -0.10618E+01   976   0.373E+01
DAV:   4    -0.141588573553E+02   -0.37648E-02   -0.37648E-02  1424   0.240E+00
DAV:   5    -0.141588599939E+02   -0.26385E-05   -0.26385E-05   992   0.379E-02
DAV:   6    -0.141588599979E+02   -0.40449E-08   -0.40449E-08  1336   0.141E-03
DAV:   7    -0.141588599979E+02   -0.15973E-10   -0.15963E-10  1096   0.381E-05
DAV:   8    -0.141588599979E+02   -0.11369E-12   -0.12829E-12   864   0.258E-06    0.889E+00
DAV:   9    -0.125416245225E+02    0.16172E+01   -0.44498E+00  1104   0.144E+01    0.488E+00
DAV:  10    -0.122025004108E+02    0.33912E+00   -0.20973E+00  1240   0.974E+00    0.290E+00
DAV:  11    -0.121645923696E+02    0.37908E-01   -0.46747E-02  1040   0.273E+00    0.319E-01
DAV:  12    -0.121633059605E+02    0.12864E-02   -0.50121E-03  1240   0.462E-01    0.147E-01
DAV:  13    -0.121633779412E+02   -0.71981E-04   -0.44624E-04   944   0.189E-01    0.633E-02
DAV:  14    -0.121633925421E+02   -0.14601E-04   -0.11283E-04  1088   0.877E-02    0.529E-03
DAV:  15    -0.121633927632E+02   -0.22106E-06   -0.27346E-06  1216   0.175E-02    0.487E-03
DAV:  16    -0.121633926867E+02    0.76439E-07   -0.84006E-07  1168   0.795E-03
   1 F= -.12163393E+02 E0= -.12163393E+02  d E =-.121634E+02
