PROCAR new format
# of k-points:   56         # of bands:    8         # of ions:    2

 k-point     1 :    0.00000000 0.00000000 0.00000000     weight = 0.00075131

band     1 # energy  -12.92161630 # occ.  2.00000000
 
ion      s      p      d    tot
    1  0.337  0.000  0.000  0.337
    2  0.448  0.000  0.000  0.448
tot    0.785  0.000  0.000  0.785
 
band     2 # energy    2.50375213 # occ.  2.00000000
 
ion      s      p      d    tot
    1  0.000  0.063  0.142  0.205
    2  0.000  0.620  0.000  0.620
tot    0.000  0.682  0.142  0.825
 
band     3 # energy    2.50375227 # occ.  2.00000000
 
ion      s      p      d    tot
    1  0.000  0.063  0.142  0.205
    2  0.000  0.620  0.000  0.620
tot    0.000  0.682  0.142  0.825
 
band     4 # energy    2.50375275 # occ.  2.00000000
 
ion      s      p      d    tot
    1  0.000  0.063  0.142  0.205
    2  0.000  0.620  0.000  0.620
tot    0.000  0.682  0.142  0.825
 
band     5 # energy    3.96396591 # occ.  0.00000000
 
ion      s      p      d    tot
    1  0.292  0.000  0.000  0.292
    2  0.345  0.000  0.000  0.345
tot    0.638  0.000  0.000  0.638
 
band     6 # energy   12.58250083 # occ.  0.00000000
 
ion      s      p      d    tot
    1  0.000  0.739  0.010  0.749
    2  0.000  0.005  0.000  0.005
tot    0.000  0.744  0.010  0.754
 
band     7 # energy   12.58250103 # occ.  0.00000000
 
ion      s      p      d    tot
    1  0.000  0.739  0.010  0.749
    2  0.000  0.005  0.000  0.005
tot    0.000  0.744  0.010  0.754
 
band     8 # energy   12.58250107 # occ.  0.00000000
 
ion      s      p      d    tot
    1  0.000  0.739  0.010  0.749
    2  0.000  0.005  0.000  0.005
tot    0.000  0.744  0.010  0.754
 

 k-point     2 :    0.09090909 0.00000000-0.00000000     weight = 0.00601052

band     1 # energy  -12.80275595 # occ.  2.00000000
 
ion      s      p      d    tot
    1  0.326  0.007  0.001  0.334
    2  0.452  0.001  0.000  0.453
tot    0.778  0.008  0.001  0.787
 
band     2 # energy    1.51782644 # occ.  2.00000000
 
ion      s      p      d    tot
    1  0.092  0.064  0.111  0.267
    2  0.089  0.432  0.000  0.521
tot    0.181  0.497  0.111  0.788
 
band     3 # energy    2.42173198 # occ.  2.00000000
 
ion      s      p      d    tot
    1  0.000  0.075  0.136  0.211
    2  0.000  0.613  0.000  0.613
tot    0.000  0.688  0.136  0.824
 
band     4 # energy    2.42173236 # occ.  2.00000000
 
ion      s      p      d    tot
    1  0.000  0.075  0.136  0.211
    2  0.000  0.613  0.000  0.613
tot    0.000  0.688  0.136  0.824
 
band     5 # energy    4.75511787 # occ.  0.00000000
 
ion      s      p      d    tot
    1  0.208  0.032  0.016  0.256
    2  0.249  0.166  0.000  0.415
tot    0.458  0.198  0.016  0.671
 
band     6 # energy   12.15619170 # occ.  0.00000000
 
ion      s      p      d    tot
    1  0.056  0.606  0.017  0.679
    2  0.000  0.039  0.000  0.039
tot    0.056  0.645  0.017  0.718
 
band     7 # energy   12.71168659 # occ.  0.00000000
 
ion      s      p      d    tot
    1  0.000  0.727  0.015  0.742
    2  0.000  0.014  0.000  0.014
tot    0.000  0.741  0.015  0.756
 
band     8 # energy   12.71168673 # occ.  0.00000000
 
ion      s      p      d    tot
    1  0.000  0.727  0.015  0.742
    2  0.000  0.014  0.000  0.014
tot    0.000  0.741  0.015  0.756
 

 k-point     3 :    0.18181818 0.00000000-0.00000000     weight = 0.00601052

band     1 # energy  -12.45787652 # occ.  2.00000000
 
ion      s      p      d    tot
    1  0.294  0.027  0.004  0.325
    2  0.465  0.002  0.000  0.467
tot    0.759  0.030  0.004  0.793
 
band     2 # energy   -0.06858787 # occ.  2.00000000
 
ion      s      p      d    tot
    1  0.145  0.100  0.087  0.331
    2  0.106  0.340  0.000  0.446
tot    0.251  0.440  0.087  0.778
 
band     3 # energy    2.21361232 # occ.  2.00000000
 
ion      s      p      d    tot
    1  0.000  0.105  0.120  0.226
    2  0.000  0.596  0.000  0.596
tot    0.000  0.701  0.120  0.822
 
band     4 # energy    2.21361269 # occ.  2.00000000
 
ion      s      p      d    tot
    1  0.000  0.105  0.120  0.226
    2  0.000  0.596  0.000  0.596
tot    0.000  0.701  0.120  0.822
 
band     5 # energy    5.76148573 # occ.  0.00000000
 
ion      s      p      d    tot
    1  0.194  0.075  0.004  0.273
    2  0.209  0.192  0.000  0.401
tot    0.403  0.267  0.004  0.674
 
band     6 # energy   11.42846774 # occ.  0.00000000
 
ion      s      p      d    tot
    1  0.118  0.384  0.034  0.537
    2  0.001  0.130  0.000  0.131
tot    0.119  0.514  0.034  0.667
 
band     7 # energy   12.95255311 # occ.  0.00000000
 
ion      s      p      d    tot
    1  0.000  0.685  0.038  0.723
    2  0.000  0.032  0.000  0.032
tot    0.000  0.717  0.038  0.755
 
band     8 # energy   12.95255322 # occ.  0.00000000
 
ion      s      p      d    tot
    1  0.000  0.685  0.038  0.723
    2  0.000  0.032  0.000  0.032
tot    0.000  0.717  0.038  0.755
 

 k-point     4 :    0.27272727-0.00000000 0.00000000     weight = 0.00601052

band     1 # energy  -11.93096722 # occ.  2.00000000
 
ion      s      p      d    tot
    1  0.242  0.056  0.011  0.309
    2  0.490  0.004  0.000  0.493
tot    0.732  0.060  0.011  0.802
 
band     2 # energy   -1.70148744 # occ.  2.00000000
 
ion      s      p      d    tot
    1  0.196  0.139  0.057  0.392
    2  0.089  0.288  0.000  0.377
tot    0.285  0.427  0.057  0.769
 
band     3 # energy    1.96341710 # occ.  2.00000000
 
ion      s      p      d    tot
    1  0.000  0.139  0.102  0.242
    2  0.000  0.579  0.000  0.579
tot    0.000  0.718  0.102  0.820
 
band     4 # energy    1.96341746 # occ.  2.00000000
 
ion      s      p      d    tot
    1  0.000  0.139  0.102  0.242
    2  0.000  0.579  0.000  0.579
tot    0.000  0.718  0.102  0.820
 
band     5 # energy    6.46013773 # occ.  0.00000000
 
ion      s      p      d    tot
    1  0.236  0.109  0.001  0.346
    2  0.190  0.137  0.000  0.327
tot    0.426  0.246  0.001  0.673
 
band     6 # energy   10.99725647 # occ.  0.00000000
 
ion      s      p      d    tot
    1  0.110  0.208  0.053  0.371
    2  0.001  0.262  0.000  0.263
tot    0.111  0.470  0.053  0.635
 
band     7 # energy   13.01116445 # occ.  0.00000000
 
ion      s      p      d    tot
    1  0.000  0.603  0.089  0.692
    2  0.000  0.041  0.000  0.041
tot    0.000  0.645  0.089  0.733
 
band     8 # energy   13.01116448 # occ.  0.00000000
 
ion      s      p      d    tot
    1  0.000  0.603  0.089  0.692
    2  0.000  0.041  0.000  0.041
tot    0.000  0.645  0.089  0.733
 

 k-point     5 :    0.36363636 0.00000000-0.00000000     weight = 0.00601052

band     1 # energy  -11.33047241 # occ.  2.00000000
 
ion      s      p      d    tot
    1  0.176  0.087  0.021  0.284
    2  0.528  0.003  0.000  0.531
tot    0.704  0.090  0.021  0.815
 
band     2 # energy   -3.12392689 # occ.  2.00000000
 
ion      s      p      d    tot
    1  0.258  0.163  0.027  0.448
    2  0.051  0.257  0.000  0.308
tot    0.309  0.420  0.027  0.756
 
band     3 # energy    1.75190948 # occ.  2.00000000
 
ion      s      p      d    tot
    1  0.000  0.167  0.087  0.253
    2  0.000  0.566  0.000  0.566
tot    0.000  0.732  0.087  0.819
 
band     4 # energy    1.75190984 # occ.  2.00000000
 
ion      s      p      d    tot
    1  0.000  0.167  0.087  0.253
    2  0.000  0.566  0.000  0.566
tot    0.000  0.732  0.087  0.819
 
band     5 # energy    6.78256790 # occ.  0.00000000
 
ion      s      p      d    tot
    1  0.303  0.112  0.013  0.428
    2  0.177  0.066  0.000  0.243
tot    0.480  0.178  0.013  0.671
 
band     6 # energy   10.93913231 # occ.  0.00000000
 
ion      s      p      d    tot
    1  0.055  0.110  0.070  0.236
    2  0.002  0.380  0.000  0.382
tot    0.058  0.490  0.070  0.618
 
band     7 # energy   12.85222971 # occ.  0.00000000
 
ion      s      p      d    tot
    1  0.000  0.524  0.141  0.665
    2  0.000  0.039  0.000  0.039
tot    0.000  0.562  0.141  0.704
 
band     8 # energy   12.85222977 # occ.  0.00000000
 
ion      s      p      d    tot
    1  0.000  0.524  0.141  0.665
    2  0.000  0.039  0.000  0.039
tot    0.000  0.562  0.141  0.704
 

 k-point     6 :    0.45454545 0.00000000 0.00000000     weight = 0.00601052

band     1 # energy  -10.88517277 # occ.  2.00000000
 
ion      s      p      d    tot
    1  0.120  0.108  0.031  0.259
    2  0.567  0.001  0.000  0.568
tot    0.687  0.109  0.031  0.827
 
band     2 # energy   -4.00632690 # occ.  2.00000000
 
ion      s      p      d    tot
    1  0.312  0.172  0.005  0.488
    2  0.012  0.244  0.000  0.256
tot    0.324  0.416  0.005  0.744
 
band     3 # energy    1.63326736 # occ.  2.00000000
 
ion      s      p      d    tot
    1  0.000  0.182  0.078  0.260
    2  0.000  0.559  0.000  0.559
tot    0.000  0.741  0.078  0.819
 
band     4 # energy    1.63326771 # occ.  2.00000000
 
ion      s      p      d    tot
    1  0.000  0.182  0.078  0.260
    2  0.000  0.559  0.000  0.559
tot    0.000  0.741  0.078  0.819
 
band     5 # energy    6.86978153 # occ.  0.00000000
 
ion      s      p      d    tot
    1  0.346  0.098  0.025  0.469
    2  0.170  0.029  0.000  0.199
tot    0.516  0.128  0.025  0.669
 
band     6 # energy   11.00989404 # occ.  0.00000000
 
ion      s      p      d    tot
    1  0.017  0.073  0.085  0.175
    2  0.002  0.435  0.000  0.438
tot    0.019  0.508  0.085  0.612
 
band     7 # energy   12.69777894 # occ.  0.00000000
 
ion      s      p      d    tot
    1  0.000  0.483  0.168  0.651
    2  0.000  0.035  0.000  0.035
tot    0.000  0.519  0.168  0.687
 
band     8 # energy   12.69777905 # occ.  0.00000000
 
ion      s      p      d    tot
    1  0.000  0.483  0.168  0.651
    2  0.000  0.035  0.000  0.035
tot    0.000  0.519  0.168  0.687
 

 k-point     7 :    0.09090909 0.09090909-0.00000000     weight = 0.00450789

band     1 # energy  -12.76323607 # occ.  2.00000000
 
ion      s      p      d    tot
    1  0.322  0.010  0.001  0.333
    2  0.454  0.001  0.000  0.454
tot    0.776  0.010  0.001  0.788
 
band     2 # energy    1.48927776 # occ.  2.00000000
 
ion      s      p      d    tot
    1  0.113  0.040  0.113  0.267
    2  0.107  0.412  0.000  0.519
tot    0.220  0.453  0.113  0.786
 
band     3 # energy    2.25801920 # occ.  2.00000000
 
ion      s      p      d    tot
    1  0.000  0.096  0.128  0.224
    2  0.000  0.596  0.000  0.596
tot    0.000  0.692  0.128  0.820
 
band     4 # energy    2.25801952 # occ.  2.00000000
 
ion      s      p      d    tot
    1  0.000  0.096  0.128  0.224
    2  0.000  0.596  0.000  0.596
tot    0.000  0.692  0.128  0.820
 
band     5 # energy    4.99834505 # occ.  0.00000000
 
ion      s      p      d    tot
    1  0.187  0.032  0.020  0.240
    2  0.228  0.210  0.000  0.437
tot    0.415  0.242  0.020  0.678
 
band     6 # energy   11.87868493 # occ.  0.00000000
 
ion      s      p      d    tot
    1  0.076  0.628  0.018  0.721
    2  0.000  0.007  0.000  0.007
tot    0.076  0.635  0.018  0.728
 
band     7 # energy   12.83658080 # occ.  0.00000000
 
ion      s      p      d    tot
    1  0.000  0.693  0.016  0.709
    2  0.000  0.038  0.000  0.038
tot    0.000  0.731  0.016  0.747
 
band     8 # energy   12.83658084 # occ.  0.00000000
 
ion      s      p      d    tot
    1  0.000  0.693  0.016  0.709
    2  0.000  0.038  0.000  0.038
tot    0.000  0.731  0.016  0.747
 

 k-point     8 :    0.18181818 0.09090909-0.00000000     weight = 0.01803156

band     1 # energy  -12.49379392 # occ.  2.00000000
 
ion      s      p      d    tot
    1  0.297  0.026  0.004  0.327
    2  0.464  0.002  0.000  0.466
tot    0.761  0.028  0.004  0.792
 
band     2 # energy    0.32183899 # occ.  2.00000000
 
ion      s      p      d    tot
    1  0.149  0.070  0.097  0.315
    2  0.116  0.351  0.000  0.467
tot    0.265  0.421  0.097  0.782
 
band     3 # energy    1.98849410 # occ.  2.00000000
 
ion      s      p      d    tot
    1  0.000  0.130  0.112  0.242
    2  0.000  0.574  0.000  0.574
tot    0.000  0.704  0.112  0.817
 
band     4 # energy    2.08447640 # occ.  2.00000000
 
ion      s      p      d    tot
    1  0.009  0.111  0.116  0.237
    2  0.005  0.575  0.000  0.580
tot    0.014  0.687  0.116  0.817
 
band     5 # energy    5.84464064 # occ.  0.00000000
 
ion      s      p      d    tot
    1  0.165  0.063  0.012  0.239
    2  0.195  0.243  0.000  0.439
tot    0.361  0.306  0.012  0.678
 
band     6 # energy   11.24684837 # occ.  0.00000000
 
ion      s      p      d    tot
    1  0.139  0.477  0.035  0.651
    2  0.000  0.053  0.000  0.053
tot    0.139  0.530  0.035  0.704
 
band     7 # energy   12.97330044 # occ.  0.00000000
 
ion      s      p      d    tot
    1  0.000  0.636  0.031  0.667
    2  0.001  0.057  0.000  0.058
tot    0.001  0.693  0.031  0.725
 
band     8 # energy   13.12318244 # occ.  0.00000000
 
ion      s      p      d    tot
    1  0.000  0.643  0.030  0.673
    2  0.000  0.069  0.000  0.069
tot    0.000  0.712  0.030  0.742
 

 k-point     9 :    0.27272727 0.09090909-0.00000000     weight = 0.01803156

band     1 # energy  -12.02594595 # occ.  2.00000000
 
ion      s      p      d    tot
    1  0.251  0.052  0.009  0.313
    2  0.484  0.004  0.000  0.488
tot    0.736  0.056  0.009  0.800
 
band     2 # energy   -1.18929680 # occ.  2.00000000
 
ion      s      p      d    tot
    1  0.189  0.116  0.069  0.374
    2  0.100  0.302  0.000  0.402
tot    0.290  0.418  0.069  0.776
 
band     3 # energy    1.71406283 # occ.  2.00000000
 
ion      s      p      d    tot
    1  0.000  0.164  0.094  0.258
    2  0.000  0.555  0.000  0.555
tot    0.000  0.720  0.094  0.814
 
band     4 # energy    1.82761012 # occ.  2.00000000
 
ion      s      p      d    tot
    1  0.020  0.134  0.101  0.255
    2  0.008  0.551  0.000  0.559
tot    0.028  0.685  0.101  0.814
 
band     5 # energy    6.63479089 # occ.  0.00000000
 
ion      s      p      d    tot
    1  0.183  0.098  0.005  0.286
    2  0.175  0.216  0.000  0.390
tot    0.358  0.314  0.005  0.677
 
band     6 # energy   10.81639934 # occ.  0.00000000
 
ion      s      p      d    tot
    1  0.156  0.292  0.062  0.510
    2  0.000  0.168  0.000  0.168
tot    0.156  0.460  0.062  0.678
 
band     7 # energy   12.77047858 # occ.  0.00000000
 
ion      s      p      d    tot
    1  0.004  0.528  0.077  0.608
    2  0.005  0.051  0.000  0.056
tot    0.009  0.579  0.077  0.664
 
band     8 # energy   13.29687795 # occ.  0.00000000
 
ion      s      p      d    tot
    1  0.000  0.576  0.068  0.644
    2  0.000  0.086  0.000  0.086
tot    0.000  0.661  0.068  0.730
 

 k-point    10 :    0.36363636 0.09090909-0.00000000     weight = 0.01803156

band     1 # energy  -11.44163510 # occ.  2.00000000
 
ion      s      p      d    tot
    1  0.189  0.082  0.018  0.290
    2  0.518  0.004  0.000  0.522
tot    0.708  0.086  0.018  0.812
 
band     2 # energy   -2.63899709 # occ.  2.00000000
 
ion      s      p      d    tot
    1  0.244  0.150  0.037  0.431
    2  0.066  0.267  0.000  0.333
tot    0.310  0.417  0.037  0.764
 
band     3 # energy    1.51502023 # occ.  2.00000000
 
ion      s      p      d    tot
    1  0.029  0.159  0.085  0.274
    2  0.010  0.526  0.000  0.536
tot    0.039  0.685  0.085  0.810
 
band     4 # energy    1.51834086 # occ.  2.00000000
 
ion      s      p      d    tot
    1  0.000  0.189  0.079  0.268
    2  0.000  0.545  0.000  0.545
tot    0.000  0.733  0.079  0.813
 
band     5 # energy    7.12336995 # occ.  0.00000000
 
ion      s      p      d    tot
    1  0.243  0.113  0.013  0.369
    2  0.159  0.150  0.000  0.309
tot    0.402  0.263  0.013  0.678
 
band     6 # energy   10.65728512 # occ.  0.00000000
 
ion      s      p      d    tot
    1  0.095  0.167  0.093  0.356
    2  0.000  0.285  0.000  0.286
tot    0.095  0.453  0.093  0.641
 
band     7 # energy   12.53792108 # occ.  0.00000000
 
ion      s      p      d    tot
    1  0.022  0.436  0.108  0.566
    2  0.008  0.071  0.000  0.079
tot    0.031  0.507  0.108  0.646
 
band     8 # energy   13.21642805 # occ.  0.00000000
 
ion      s      p      d    tot
    1  0.000  0.509  0.120  0.628
    2  0.000  0.080  0.000  0.080
tot    0.000  0.589  0.120  0.708
 

 k-point    11 :    0.45454545 0.09090909-0.00000000     weight = 0.01803156

band     1 # energy  -10.92256518 # occ.  2.00000000
 
ion      s      p      d    tot
    1  0.126  0.107  0.029  0.263
    2  0.560  0.002  0.000  0.562
tot    0.687  0.109  0.029  0.825
 
band     2 # energy   -3.70058464 # occ.  2.00000000
 
ion      s      p      d    tot
    1  0.302  0.166  0.011  0.479
    2  0.023  0.249  0.000  0.272
tot    0.325  0.415  0.011  0.751
 
band     3 # energy    1.24330958 # occ.  2.00000000
 
ion      s      p      d    tot
    1  0.036  0.179  0.073  0.288
    2  0.011  0.507  0.000  0.518
tot    0.046  0.686  0.073  0.806
 
band     4 # energy    1.44914744 # occ.  2.00000000
 
ion      s      p      d    tot
    1  0.000  0.199  0.072  0.271
    2  0.000  0.543  0.000  0.543
tot    0.000  0.742  0.072  0.814
 
band     5 # energy    7.32424708 # occ.  0.00000000
 
ion      s      p      d    tot
    1  0.303  0.104  0.026  0.432
    2  0.150  0.099  0.000  0.249
tot    0.453  0.203  0.026  0.681
 
band     6 # energy   10.58723399 # occ.  0.00000000
 
ion      s      p      d    tot
    1  0.025  0.132  0.122  0.280
    2  0.001  0.321  0.000  0.322
tot    0.026  0.454  0.122  0.602
 
band     7 # energy   12.55592044 # occ.  0.00000000
 
ion      s      p      d    tot
    1  0.037  0.367  0.115  0.518
    2  0.007  0.143  0.000  0.150
tot    0.044  0.510  0.115  0.669
 
band     8 # energy   13.02517946 # occ.  0.00000000
 
ion      s      p      d    tot
    1  0.000  0.470  0.156  0.626
    2  0.000  0.065  0.000  0.065
tot    0.000  0.535  0.156  0.691
 

 k-point    12 :   -0.45454545 0.09090909-0.00000000     weight = 0.01803156

band     1 # energy  -10.75705345 # occ.  2.00000000
 
ion      s      p      d    tot
    1  0.104  0.115  0.033  0.252
    2  0.577  0.001  0.000  0.578
tot    0.681  0.116  0.033  0.830
 
band     2 # energy   -4.00636461 # occ.  2.00000000
 
ion      s      p      d    tot
    1  0.324  0.169  0.002  0.495
    2  0.006  0.245  0.000  0.251
tot    0.329  0.414  0.002  0.746
 
band     3 # energy    1.08139545 # occ.  2.00000000
 
ion      s      p      d    tot
    1  0.037  0.191  0.068  0.296
    2  0.011  0.496  0.000  0.507
tot    0.048  0.687  0.068  0.803
 
band     4 # energy    1.51884053 # occ.  2.00000000
 
ion      s      p      d    tot
    1  0.000  0.194  0.073  0.267
    2  0.000  0.550  0.000  0.550
tot    0.000  0.743  0.073  0.816
 
band     5 # energy    7.37667559 # occ.  0.00000000
 
ion      s      p      d    tot
    1  0.322  0.098  0.028  0.449
    2  0.148  0.086  0.000  0.235
tot    0.471  0.185  0.028  0.684
 
band     6 # energy   10.57817053 # occ.  0.00000000
 
ion      s      p      d    tot
    1  0.002  0.128  0.131  0.261
    2  0.001  0.325  0.000  0.326
tot    0.003  0.453  0.131  0.587
 
band     7 # energy   12.59580292 # occ.  0.00000000
 
ion      s      p      d    tot
    1  0.041  0.340  0.114  0.495
    2  0.006  0.177  0.000  0.182
tot    0.046  0.517  0.114  0.677
 
band     8 # energy   12.91535532 # occ.  0.00000000
 
ion      s      p      d    tot
    1  0.000  0.469  0.167  0.636
    2  0.000  0.051  0.000  0.051
tot    0.000  0.520  0.167  0.688
 

 k-point    13 :   -0.36363636 0.09090909-0.00000000     weight = 0.01803156

band     1 # energy  -11.07248564 # occ.  2.00000000
 
ion      s      p      d    tot
    1  0.146  0.100  0.026  0.271
    2  0.547  0.003  0.000  0.550
tot    0.693  0.103  0.026  0.821
 
band     2 # energy   -3.41038461 # occ.  2.00000000
 
ion      s      p      d    tot
    1  0.283  0.164  0.018  0.465
    2  0.037  0.253  0.000  0.290
tot    0.320  0.417  0.018  0.755
 
band     3 # energy    1.06942472 # occ.  2.00000000
 
ion      s      p      d    tot
    1  0.034  0.194  0.069  0.297
    2  0.010  0.494  0.000  0.504
tot    0.044  0.688  0.069  0.801
 
band     4 # energy    1.70883985 # occ.  2.00000000
 
ion      s      p      d    tot
    1  0.000  0.173  0.082  0.256
    2  0.000  0.563  0.000  0.563
tot    0.000  0.737  0.082  0.819
 
band     5 # energy    7.31835666 # occ.  0.00000000
 
ion      s      p      d    tot
    1  0.293  0.106  0.020  0.419
    2  0.154  0.112  0.000  0.266
tot    0.447  0.218  0.020  0.685
 
band     6 # energy   10.66705396 # occ.  0.00000000
 
ion      s      p      d    tot
    1  0.030  0.131  0.115  0.275
    2  0.001  0.327  0.000  0.328
tot    0.031  0.458  0.115  0.603
 
band     7 # energy   12.51578951 # occ.  0.00000000
 
ion      s      p      d    tot
    1  0.042  0.366  0.107  0.515
    2  0.007  0.135  0.000  0.142
tot    0.049  0.501  0.107  0.657
 
band     8 # energy   12.96501168 # occ.  0.00000000
 
ion      s      p      d    tot
    1  0.000  0.510  0.152  0.662
    2  0.000  0.041  0.000  0.041
tot    0.000  0.550  0.152  0.703
 

 k-point    14 :   -0.27272727 0.09090909 0.00000000     weight = 0.01803156

band     1 # energy  -11.64202169 # occ.  2.00000000
 
ion      s      p      d    tot
    1  0.212  0.072  0.015  0.298
    2  0.506  0.004  0.000  0.510
tot    0.717  0.076  0.015  0.808
 
band     2 # energy   -2.18365719 # occ.  2.00000000
 
ion      s      p      d    tot
    1  0.223  0.143  0.047  0.413
    2  0.080  0.276  0.000  0.356
tot    0.302  0.419  0.047  0.769
 
band     3 # energy    1.22329913 # occ.  2.00000000
 
ion      s      p      d    tot
    1  0.027  0.186  0.077  0.290
    2  0.007  0.504  0.000  0.511
tot    0.034  0.690  0.077  0.801
 
band     4 # energy    1.97236741 # occ.  2.00000000
 
ion      s      p      d    tot
    1  0.000  0.142  0.098  0.240
    2  0.000  0.582  0.000  0.582
tot    0.000  0.724  0.098  0.822
 
band     5 # energy    7.03596057 # occ.  0.00000000
 
ion      s      p      d    tot
    1  0.229  0.108  0.006  0.344
    2  0.167  0.173  0.000  0.340
tot    0.397  0.281  0.006  0.684
 
band     6 # energy   10.82032634 # occ.  0.00000000
 
ion      s      p      d    tot
    1  0.104  0.182  0.084  0.371
    2  0.001  0.272  0.000  0.272
tot    0.105  0.453  0.084  0.643
 
band     7 # energy   12.52719450 # occ.  0.00000000
 
ion      s      p      d    tot
    1  0.023  0.425  0.092  0.540
    2  0.007  0.084  0.000  0.091
tot    0.030  0.510  0.092  0.632
 
band     8 # energy   13.09949458 # occ.  0.00000000
 
ion      s      p      d    tot
    1  0.000  0.599  0.107  0.706
    2  0.000  0.032  0.000  0.032
tot    0.000  0.631  0.107  0.738
 

 k-point    15 :   -0.18181818 0.09090909-0.00000000     weight = 0.01803156

band     1 # energy  -12.20124560 # occ.  2.00000000
 
ion      s      p      d    tot
    1  0.269  0.042  0.007  0.318
    2  0.476  0.003  0.000  0.479
tot    0.745  0.045  0.007  0.797
 
band     2 # energy   -0.70632674 # occ.  2.00000000
 
ion      s      p      d    tot
    1  0.172  0.104  0.078  0.355
    2  0.108  0.315  0.000  0.423
tot    0.280  0.420  0.078  0.778
 
band     3 # energy    1.53714642 # occ.  2.00000000
 
ion      s      p      d    tot
    1  0.016  0.166  0.092  0.274
    2  0.003  0.529  0.000  0.532
tot    0.018  0.695  0.092  0.806
 
band     4 # energy    2.23648964 # occ.  2.00000000
 
ion      s      p      d    tot
    1  0.000  0.106  0.117  0.223
    2  0.000  0.601  0.000  0.601
tot    0.000  0.707  0.117  0.824
 
band     5 # energy    6.39676897 # occ.  0.00000000
 
ion      s      p      d    tot
    1  0.181  0.086  0.003  0.271
    2  0.186  0.224  0.000  0.410
tot    0.367  0.310  0.003  0.680
 
band     6 # energy   11.12510093 # occ.  0.00000000
 
ion      s      p      d    tot
    1  0.148  0.320  0.056  0.524
    2  0.000  0.154  0.000  0.155
tot    0.148  0.474  0.056  0.679
 
band     7 # energy   12.73536379 # occ.  0.00000000
 
ion      s      p      d    tot
    1  0.003  0.507  0.057  0.568
    2  0.004  0.080  0.000  0.084
tot    0.008  0.587  0.057  0.652
 
band     8 # energy   13.08725261 # occ.  0.00000000
 
ion      s      p      d    tot
    1  0.000  0.702  0.049  0.752
    2  0.000  0.020  0.000  0.020
tot    0.000  0.722  0.049  0.772
 

 k-point    16 :   -0.09090909 0.09090909 0.00000000     weight = 0.00901578

band     1 # energy  -12.60845150 # occ.  2.00000000
 
ion      s      p      d    tot
    1  0.308  0.019  0.003  0.330
    2  0.459  0.002  0.000  0.461
tot    0.767  0.020  0.003  0.790
 
band     2 # energy    0.66338832 # occ.  2.00000000
 
ion      s      p      d    tot
    1  0.132  0.070  0.100  0.301
    2  0.112  0.368  0.000  0.481
tot    0.244  0.438  0.100  0.782
 
band     3 # energy    1.98911885 # occ.  2.00000000
 
ion      s      p      d    tot
    1  0.004  0.126  0.114  0.245
    2  0.000  0.570  0.000  0.570
tot    0.004  0.696  0.114  0.814
 
band     4 # energy    2.41121142 # occ.  2.00000000
 
ion      s      p      d    tot
    1  0.000  0.079  0.131  0.211
    2  0.000  0.614  0.000  0.614
tot    0.000  0.694  0.131  0.825
 
band     5 # energy    5.49492554 # occ.  0.00000000
 
ion      s      p      d    tot
    1  0.180  0.054  0.012  0.246
    2  0.213  0.219  0.000  0.432
tot    0.393  0.273  0.012  0.678
 
band     6 # energy   11.65994251 # occ.  0.00000000
 
ion      s      p      d    tot
    1  0.111  0.493  0.030  0.635
    2  0.000  0.067  0.000  0.068
tot    0.111  0.561  0.030  0.702
 
band     7 # energy   12.85267545 # occ.  0.00000000
 
ion      s      p      d    tot
    1  0.000  0.625  0.026  0.650
    2  0.001  0.062  0.000  0.063
tot    0.001  0.687  0.026  0.714
 
band     8 # energy   12.85772234 # occ.  0.00000000
 
ion      s      p      d    tot
    1  0.000  0.740  0.022  0.762
    2  0.000  0.009  0.000  0.009
tot    0.000  0.749  0.022  0.771
 

 k-point    17 :    0.18181818 0.18181818-0.00000000     weight = 0.00450789

band     1 # energy  -12.30489538 # occ.  2.00000000
 
ion      s      p      d    tot
    1  0.278  0.037  0.006  0.321
    2  0.471  0.003  0.000  0.474
tot    0.749  0.040  0.006  0.795
 
band     2 # energy    0.06246922 # occ.  2.00000000
 
ion      s      p      d    tot
    1  0.190  0.033  0.101  0.325
    2  0.132  0.331  0.000  0.464
tot    0.323  0.364  0.101  0.789
 
band     3 # energy    1.65496177 # occ.  2.00000000
 
ion      s      p      d    tot
    1  0.000  0.168  0.096  0.263
    2  0.000  0.547  0.000  0.547
tot    0.000  0.715  0.096  0.810
 
band     4 # energy    1.65496206 # occ.  2.00000000
 
ion      s      p      d    tot
    1  0.000  0.168  0.096  0.263
    2  0.000  0.547  0.000  0.547
tot    0.000  0.715  0.096  0.810
 
band     5 # energy    6.34294162 # occ.  0.00000000
 
ion      s      p      d    tot
    1  0.126  0.085  0.012  0.223
    2  0.168  0.278  0.000  0.446
tot    0.295  0.363  0.012  0.669
 
band     6 # energy   10.52519441 # occ.  0.00000000
 
ion      s      p      d    tot
    1  0.199  0.447  0.042  0.689
    2  0.000  0.023  0.000  0.023
tot    0.199  0.470  0.042  0.712
 
band     7 # energy   13.50414193 # occ.  0.00000000
 
ion      s      p      d    tot
    1  0.000  0.591  0.032  0.623
    2  0.000  0.113  0.000  0.113
tot    0.000  0.705  0.032  0.736
 
band     8 # energy   13.50414201 # occ.  0.00000000
 
ion      s      p      d    tot
    1  0.000  0.591  0.032  0.623
    2  0.000  0.113  0.000  0.113
tot    0.000  0.705  0.032  0.736
 

 k-point    18 :    0.27272727 0.18181818 0.00000000     weight = 0.01803156

band     1 # energy  -11.91335276 # occ.  2.00000000
 
ion      s      p      d    tot
    1  0.239  0.060  0.010  0.309
    2  0.489  0.004  0.000  0.493
tot    0.728  0.064  0.010  0.802
 
band     2 # energy   -0.93582163 # occ.  2.00000000
 
ion      s      p      d    tot
    1  0.222  0.063  0.083  0.367
    2  0.117  0.305  0.000  0.422
tot    0.339  0.368  0.083  0.789
 
band     3 # energy    1.31328609 # occ.  2.00000000
 
ion      s      p      d    tot
    1  0.018  0.186  0.081  0.284
    2  0.005  0.514  0.000  0.519
tot    0.023  0.699  0.081  0.804
 
band     4 # energy    1.33300936 # occ.  2.00000000
 
ion      s      p      d    tot
    1  0.000  0.202  0.078  0.280
    2  0.000  0.526  0.000  0.526
tot    0.000  0.728  0.078  0.806
 
band     5 # energy    6.94030781 # occ.  0.00000000
 
ion      s      p      d    tot
    1  0.102  0.131  0.014  0.248
    2  0.145  0.259  0.000  0.404
tot    0.247  0.391  0.014  0.652
 
band     6 # energy   10.05459559 # occ.  0.00000000
 
ion      s      p      d    tot
    1  0.253  0.318  0.065  0.637
    2  0.001  0.081  0.000  0.082
tot    0.254  0.400  0.065  0.718
 
band     7 # energy   13.15376132 # occ.  0.00000000
 
ion      s      p      d    tot
    1  0.000  0.352  0.124  0.476
    2  0.011  0.095  0.000  0.106
tot    0.011  0.447  0.124  0.583
 
band     8 # energy   13.84094472 # occ.  0.00000000
 
ion      s      p      d    tot
    1  0.000  0.535  0.053  0.588
    2  0.000  0.143  0.000  0.143
tot    0.000  0.678  0.053  0.731
 

 k-point    19 :    0.36363636 0.18181818-0.00000000     weight = 0.01803156

band     1 # energy  -11.38223017 # occ.  2.00000000
 
ion      s      p      d    tot
    1  0.182  0.089  0.018  0.288
    2  0.519  0.005  0.000  0.524
tot    0.701  0.093  0.018  0.812
 
band     2 # energy   -2.15539706 # occ.  2.00000000
 
ion      s      p      d    tot
    1  0.261  0.108  0.051  0.420
    2  0.082  0.278  0.000  0.361
tot    0.343  0.387  0.051  0.781
 
band     3 # energy    0.86390755 # occ.  2.00000000
 
ion      s      p      d    tot
    1  0.048  0.194  0.068  0.310
    2  0.012  0.471  0.000  0.483
tot    0.060  0.665  0.068  0.794
 
band     4 # energy    1.11616167 # occ.  2.00000000
 
ion      s      p      d    tot
    1  0.000  0.226  0.064  0.290
    2  0.000  0.514  0.000  0.514
tot    0.000  0.740  0.064  0.804
 
band     5 # energy    7.48879401 # occ.  0.00000000
 
ion      s      p      d    tot
    1  0.119  0.158  0.033  0.311