<?xml version="1.0" encoding="ISO-8859-1"?>
<modeling>
 <generator>
  <i name="program" type="string">vasp </i>
  <i name="version" type="string">5.4.4.18Apr17-6-g9f103f2a35  </i>
  <i name="subversion" type="string">(build Apr 10 2018 17:34:00) complex            parallel </i>
  <i name="platform" type="string">LinuxIFC </i>
  <i name="date" type="string">2018 10 04 </i>
  <i name="time" type="string">08:18:56 </i>
 </generator>
 <incar>
  <i type="string" name="SYSTEM"> GaN</i>
  <i type="string" name="PREC">accurate  ! calcululation level (change</i>
  <i type="string" name="ALGO"> NORMAL    ! A Davidson blocked iteratio</i>
  <i type="logical" name="ADDGRID"> T  </i>
  <i type="int" name="ISPIN">     1</i>
  <i name="AMIX">      0.20000000</i>
  <i name="BMIX">      0.00100000</i>
  <i type="int" name="NELM">   100</i>
  <i type="int" name="NELMDL">    -8</i>
  <i type="int" name="NELMIN">     6</i>
  <i type="int" name="IBRION">     2</i>
  <i name="EDIFF">      0.00000010</i>
  <i name="EDIFFG">     -0.00100000</i>
  <i type="int" name="NSW">   100</i>
  <i type="int" name="ISIF">     3</i>
  <i name="ENCUT">    800.00000000</i>
  <i name="POTIM">      0.50000000</i>
  <i type="int" name="NEDOS">    11</i>
  <i type="logical" name="LREAL"> F  </i>
  <i type="logical" name="LPLANE"> T  </i>
  <i type="int" name="ISMEAR">     0</i>
  <i name="SIGMA">      0.01000000</i>
  <i type="int" name="NWRITE">     1</i>
  <i type="int" name="LMAXMIX">     6</i>
  <i type="logical" name="LWAVE"> F  </i>
  <i type="logical" name="LCHARG"> F  </i>
  <i type="int" name="LORBIT">    10</i>
  <i type="logical" name="LASPH"> T  </i>
  <v type="int" name="KPOINT_BSE">    -1     0     0     0</v>
  <i type="int" name="NELM">   100</i>
  <i type="logical" name="LASPH"> T  </i>
 </incar>
 <structure name="primitive_cell" >
  <crystal>
   <varray name="basis" >
    <v>       0.00000000       2.29386856       2.29386856 </v>
    <v>       2.29386856       0.00000000       2.29386856 </v>
    <v>       2.29386856       2.29386856       0.00000000 </v>
   </varray>
   <i name="volume">     24.13990646 </i>
   <varray name="rec_basis" >
    <v>      -0.21797238       0.21797238       0.21797238 </v>
    <v>       0.21797238      -0.21797238       0.21797238 </v>
    <v>       0.21797238       0.21797238      -0.21797238 </v>
   </varray>
  </crystal>
  <varray name="positions" >
   <v>       0.00000000       0.00000000       0.00000000 </v>
   <v>       0.25000000       0.25000000       0.25000000 </v>
  </varray>
 </structure>
 <varray name="primitive_index" >
  <v type="int" >        1 </v>
  <v type="int" >        2 </v>
 </varray>
 <kpoints>
  <generation param="Auto">
   <i name="subdivisionlength">     30.00000000 </i>
   <v type="int" name="divisions">      11       11       11 </v>
   <v name="usershift">      0.00000000       0.00000000       0.00000000 </v>
   <v name="genvec1">      0.09090909      -0.00000000       0.00000000 </v>
   <v name="genvec2">     -0.00000000       0.09090909      -0.00000000 </v>
   <v name="genvec3">      0.00000000       0.00000000       0.09090909 </v>
   <v name="shift">      0.00000000       0.00000000       0.00000000 </v>
  </generation>
  <varray name="kpointlist" >
   <v>       0.00000000       0.00000000       0.00000000 </v>
   <v>       0.09090909       0.00000000      -0.00000000 </v>
   <v>       0.18181818       0.00000000      -0.00000000 </v>
   <v>       0.27272727      -0.00000000       0.00000000 </v>
   <v>       0.36363636       0.00000000      -0.00000000 </v>
   <v>       0.45454545       0.00000000       0.00000000 </v>
   <v>       0.09090909       0.09090909      -0.00000000 </v>
   <v>       0.18181818       0.09090909      -0.00000000 </v>
   <v>       0.27272727       0.09090909      -0.00000000 </v>
   <v>       0.36363636       0.09090909      -0.00000000 </v>
   <v>       0.45454545       0.09090909      -0.00000000 </v>
   <v>      -0.45454545       0.09090909      -0.00000000 </v>
   <v>      -0.36363636       0.09090909      -0.00000000 </v>
   <v>      -0.27272727       0.09090909       0.00000000 </v>
   <v>      -0.18181818       0.09090909      -0.00000000 </v>
   <v>      -0.09090909       0.09090909       0.00000000 </v>
   <v>       0.18181818       0.18181818      -0.00000000 </v>
   <v>       0.27272727       0.18181818       0.00000000 </v>
   <v>       0.36363636       0.18181818      -0.00000000 </v>
   <v>       0.45454545       0.18181818       0.00000000 </v>
   <v>      -0.45454545       0.18181818      -0.00000000 </v>
   <v>      -0.36363636       0.18181818      -0.00000000 </v>
   <v>      -0.27272727       0.18181818      -0.00000000 </v>
   <v>      -0.18181818       0.18181818       0.00000000 </v>
   <v>       0.27272727       0.27272727      -0.00000000 </v>
   <v>       0.36363636       0.27272727      -0.00000000 </v>
   <v>       0.45454545       0.27272727       0.00000000 </v>
   <v>      -0.45454545       0.27272727       0.00000000 </v>
   <v>      -0.36363636       0.27272727      -0.00000000 </v>
   <v>      -0.27272727       0.27272727      -0.00000000 </v>
   <v>       0.36363636       0.36363636      -0.00000000 </v>
   <v>       0.45454545       0.36363636      -0.00000000 </v>
   <v>      -0.45454545       0.36363636      -0.00000000 </v>
   <v>      -0.36363636       0.36363636       0.00000000 </v>
   <v>       0.45454545       0.45454545      -0.00000000 </v>
   <v>      -0.45454545       0.45454545      -0.00000000 </v>
   <v>       0.27272727       0.18181818       0.09090909 </v>
   <v>       0.36363636       0.18181818       0.09090909 </v>
   <v>       0.45454545       0.18181818       0.09090909 </v>
   <v>      -0.45454545       0.18181818       0.09090909 </v>
   <v>       0.36363636       0.27272727       0.09090909 </v>
   <v>       0.45454545       0.27272727       0.09090909 </v>
   <v>      -0.45454545       0.27272727       0.09090909 </v>
   <v>      -0.36363636       0.27272727       0.09090909 </v>
   <v>      -0.27272727       0.27272727       0.09090909 </v>
   <v>      -0.18181818       0.27272727       0.09090909 </v>
   <v>       0.45454545       0.36363636       0.09090909 </v>
   <v>      -0.45454545       0.36363636       0.09090909 </v>
   <v>      -0.36363636       0.36363636       0.09090909 </v>
   <v>      -0.27272727       0.36363636       0.09090909 </v>
   <v>      -0.45454545       0.45454545       0.09090909 </v>
   <v>      -0.36363636       0.45454545       0.09090909 </v>
   <v>      -0.45454545       0.36363636       0.18181818 </v>
   <v>      -0.36363636       0.36363636       0.18181818 </v>
   <v>      -0.36363636       0.45454545       0.18181818 </v>
   <v>      -0.27272727       0.45454545       0.18181818 </v>
  </varray>
  <varray name="weights" >
   <v>       0.00075131 </v>
   <v>       0.00601052 </v>
   <v>       0.00601052 </v>
   <v>       0.00601052 </v>
   <v>       0.00601052 </v>
   <v>       0.00601052 </v>
   <v>       0.00450789 </v>
   <v>       0.01803156 </v>
   <v>       0.01803156 </v>
   <v>       0.01803156 </v>
   <v>       0.01803156 </v>
   <v>       0.01803156 </v>
   <v>       0.01803156 </v>
   <v>       0.01803156 </v>
   <v>       0.01803156 </v>
   <v>       0.00901578 </v>
   <v>       0.00450789 </v>
   <v>       0.01803156 </v>
   <v>       0.01803156 </v>
   <v>       0.01803156 </v>
   <v>       0.01803156 </v>
   <v>       0.01803156 </v>
   <v>       0.01803156 </v>
   <v>       0.00901578 </v>
   <v>       0.00450789 </v>
   <v>       0.01803156 </v>
   <v>       0.01803156 </v>
   <v>       0.01803156 </v>
   <v>       0.01803156 </v>
   <v>       0.00901578 </v>
   <v>       0.00450789 </v>
   <v>       0.01803156 </v>
   <v>       0.01803156 </v>
   <v>       0.00901578 </v>
   <v>       0.00450789 </v>
   <v>       0.00901578 </v>
   <v>       0.01803156 </v>
   <v>       0.03606311 </v>
   <v>       0.03606311 </v>
   <v>       0.03606311 </v>
   <v>       0.01803156 </v>
   <v>       0.03606311 </v>
   <v>       0.03606311 </v>
   <v>       0.03606311 </v>
   <v>       0.03606311 </v>
   <v>       0.01803156 </v>
   <v>       0.01803156 </v>
   <v>       0.03606311 </v>
   <v>       0.03606311 </v>
   <v>       0.01803156 </v>
   <v>       0.01803156 </v>
   <v>       0.01803156 </v>
   <v>       0.01803156 </v>
   <v>       0.03606311 </v>
   <v>       0.01803156 </v>
   <v>       0.01803156 </v>
  </varray>
 </kpoints>
 <parameters>
  <separator name="general" >
   <i type="string" name="SYSTEM">GaN</i>
   <i type="logical" name="LCOMPAT"> F  </i>
  </separator>
  <separator name="electronic" >
   <i type="string" name="PREC">accura</i>
   <i name="ENMAX">    800.00000000</i>
   <i name="ENAUG">    627.11200000</i>
   <i name="EDIFF">      0.00000010</i>
   <i type="int" name="IALGO">    38</i>
   <i type="int" name="IWAVPR">    11</i>
   <i type="int" name="NBANDS">     8</i>
   <i name="NELECT">      8.00000000</i>
   <i type="int" name="TURBO">     0</i>
   <i type="int" name="IRESTART">     0</i>
   <i type="int" name="NREBOOT">     0</i>
   <i type="int" name="NMIN">     0</i>
   <i name="EREF">      0.00000000</i>
   <separator name="electronic smearing" >
    <i type="int" name="ISMEAR">     0</i>
    <i name="SIGMA">      0.01000000</i>
    <i name="KSPACING">      0.50000000</i>
    <i type="logical" name="KGAMMA"> T  </i>
   </separator>
   <separator name="electronic projectors" >
    <i type="logical" name="LREAL"> F  </i>
    <v name="ROPT">      0.00000000      0.00000000</v>
    <i type="int" name="LMAXPAW">  -100</i>
    <i type="int" name="LMAXMIX">     6</i>
    <i type="logical" name="NLSPLINE"> F  </i>
   </separator>
   <separator name="electronic startup" >
    <i type="int" name="ISTART">     0</i>
    <i type="int" name="ICHARG">     2</i>
    <i type="int" name="INIWAV">     1</i>
   </separator>
   <separator name="electronic spin" >
    <i type="int" name="ISPIN">     1</i>
    <i type="logical" name="LNONCOLLINEAR"> F  </i>
    <v name="MAGMOM">      1.00000000      1.00000000</v>
    <i name="NUPDOWN">     -1.00000000</i>
    <i type="logical" name="LSORBIT"> F  </i>
    <v name="SAXIS">      0.00000000      0.00000000      1.00000000</v>
    <i type="logical" name="LSPIRAL"> F  </i>
    <v name="QSPIRAL">      0.00000000      0.00000000      0.00000000</v>
    <i type="logical" name="LZEROZ"> F  </i>
   </separator>
   <separator name="electronic exchange-correlation" >
    <i type="logical" name="LASPH"> T  </i>
    <i type="logical" name="LMETAGGA"> F  </i>
   </separator>
   <separator name="electronic convergence" >
    <i type="int" name="NELM">   100</i>
    <i type="int" name="NELMDL">    -8</i>
    <i type="int" name="NELMIN">     6</i>
    <i name="ENINI">    800.00000000</i>
    <separator name="electronic convergence detail" >
     <i type="logical" name="LDIAG"> T  </i>
     <i type="logical" name="LSUBROT"> F  </i>
     <i name="WEIMIN">      0.00100000</i>
     <i name="EBREAK">      0.00000000</i>
     <i name="DEPER">      0.30000000</i>
     <i type="int" name="NRMM">     4</i>
     <i name="TIME">      0.40000000</i>
    </separator>
   </separator>
   <separator name="electronic mixer" >
    <i name="AMIX">      0.20000000</i>
    <i name="BMIX">      0.00100000</i>
    <i name="AMIN">      0.10000000</i>
    <i name="AMIX_MAG">      0.80000000</i>
    <i name="BMIX_MAG">      0.00100000</i>
    <separator name="electronic mixer details" >
     <i type="int" name="IMIX">     4</i>
     <i type="logical" name="MIXFIRST"> F  </i>
     <i type="int" name="MAXMIX">   -45</i>
     <i name="WC">    100.00000000</i>
     <i type="int" name="INIMIX">     1</i>
     <i type="int" name="MIXPRE">     1</i>
     <i type="int" name="MREMOVE">     5</i>
    </separator>
   </separator>
   <separator name="electronic dipolcorrection" >
    <i type="logical" name="LDIPOL"> F  </i>
    <i type="logical" name="LMONO"> F  </i>
    <i type="int" name="IDIPOL">     0</i>
    <i name="EPSILON">      1.00000000</i>
    <v name="DIPOL">   -100.00000000   -100.00000000   -100.00000000</v>
    <i name="EFIELD">      0.00000000</i>
   </separator>
  </separator>
  <separator name="grids" >
   <i type="int" name="NGX">    30</i>
   <i type="int" name="NGY">    30</i>
   <i type="int" name="NGZ">    30</i>
   <i type="int" name="NGXF">    60</i>
   <i type="int" name="NGYF">    60</i>
   <i type="int" name="NGZF">    60</i>
   <i type="logical" name="ADDGRID"> T  </i>
  </separator>
  <separator name="ionic" >
   <i type="int" name="NSW">   100</i>
   <i type="int" name="IBRION">     2</i>
   <i type="int" name="MDALGO">     0</i>
   <i type="int" name="ISIF">     3</i>
   <i name="PSTRESS">      0.00000000</i>
   <i name="EDIFFG">     -0.00100000</i>
   <i type="int" name="NFREE">     1</i>
   <i name="POTIM">      0.50000000</i>
   <i name="SMASS">     -3.00000000</i>
   <i name="SCALEE">      1.00000000</i>
  </separator>
  <separator name="ionic md" >
   <i name="TEBEG">      0.00010000</i>
   <i name="TEEND">      0.00010000</i>
   <i type="int" name="NBLOCK">     1</i>
   <i type="int" name="KBLOCK">   100</i>
   <i type="int" name="NPACO">   256</i>
   <i name="APACO">     16.00000000</i>
  </separator>
  <separator name="symmetry" >
   <i type="int" name="ISYM">     2</i>
   <i name="SYMPREC">      0.00001000</i>
  </separator>
  <separator name="dos" >
   <i type="int" name="LORBIT">    10</i>
   <v name="RWIGS">     -1.00000000     -1.00000000</v>
   <i type="int" name="NEDOS">    11</i>
   <i name="EMIN">     10.00000000</i>
   <i name="EMAX">    -10.00000000</i>
   <i name="EFERMI">      0.00000000</i>
  </separator>
  <separator name="writing" >
   <i type="int" name="NWRITE">     1</i>
   <i type="logical" name="LWAVE"> F  </i>
   <i type="logical" name="LDOWNSAMPLE"> F  </i>
   <i type="logical" name="LCHARG"> F  </i>
   <i type="logical" name="LPARD"> F  </i>
   <i type="logical" name="LVTOT"> F  </i>
   <i type="logical" name="LVHAR"> F  </i>
   <i type="logical" name="LELF"> F  </i>
   <i type="logical" name="LOPTICS"> F  </i>
   <v name="STM">      0.00000000      0.00000000      0.00000000      0.00000000      0.00000000      0.00000000      0.00000000</v>
  </separator>
  <separator name="performance" >
   <i type="int" name="NPAR">     2</i>
   <i type="int" name="NSIM">     4</i>
   <i type="int" name="NBLK">    -1</i>
   <i type="logical" name="LPLANE"> T  </i>
   <i type="logical" name="LSCALAPACK"> T  </i>
   <i type="logical" name="LSCAAWARE"> F  </i>
   <i type="logical" name="LSCALU"> F  </i>
   <i type="logical" name="LASYNC"> F  </i>
   <i type="logical" name="LORBITALREAL"> F  </i>
  </separator>
  <separator name="miscellaneous" >
   <i type="int" name="IDIOT">     3</i>
   <i type="int" name="ISPECIAL">     0</i>
   <i type="logical" name="LMUSIC"> F  </i>
   <v name="POMASS">     69.72300000     14.00100000</v>
   <v name="DARWINR">      0.00000000      0.00000000</v>
   <v name="DARWINV">      1.00000000      1.00000000</v>
   <i type="logical" name="LCORR"> T  </i>
  </separator>
  <i type="logical" name="GGA_COMPAT"> T  </i>
  <i type="logical" name="LBERRY"> F  </i>
  <i type="int" name="ICORELEVEL">     0</i>
  <i type="logical" name="LDAU"> F  </i>
  <i type="int" name="I_CONSTRAINED_M">     0</i>
  <separator name="electronic exchange-correlation" >
   <i type="string" name="GGA">--</i>
   <i type="int" name="VOSKOWN">     0</i>
   <i type="logical" name="LHFCALC"> F  </i>
   <i type="string" name="PRECFOCK"></i>
   <i type="logical" name="LSYMGRAD"> F  </i>
   <i type="logical" name="LHFONE"> F  </i>
   <i type="logical" name="LRHFCALC"> F  </i>
   <i type="logical" name="LTHOMAS"> F  </i>
   <i type="logical" name="LMODELHF"> F  </i>
   <i name="ENCUT4O">     -1.00000000</i>
   <i type="int" name="EXXOEP">     0</i>
   <i type="int" name="FOURORBIT">     0</i>
   <i name="AEXX">      0.00000000</i>
   <i name="HFALPHA">      0.00000000</i>
   <i name="MCALPHA">      0.00000000</i>
   <i name="ALDAX">      1.00000000</i>
   <i name="AGGAX">      1.00000000</i>
   <i name="ALDAC">      1.00000000</i>
   <i name="AGGAC">      1.00000000</i>
   <i type="int" name="NKREDX">     1</i>
   <i type="int" name="NKREDY">     1</i>
   <i type="int" name="NKREDZ">     1</i>
   <i type="logical" name="SHIFTRED"> F  </i>
   <i type="logical" name="ODDONLY"> F  </i>
   <i type="logical" name="EVENONLY"> F  </i>
   <i type="int" name="LMAXFOCK">     0</i>
   <i type="int" name="NMAXFOCKAE">     0</i>
   <i type="logical" name="LFOCKAEDFT"> F  </i>
   <i name="HFSCREEN">      0.00000000</i>
   <i name="HFSCREENC">      0.00000000</i>
   <i type="int" name="NBANDSGWLOW">     0</i>
  </separator>
  <separator name="vdW DFT" >
   <i type="logical" name="LUSE_VDW"> F  </i>
   <i name="Zab_VDW">     -0.84910000</i>
   <i name="PARAM1">      0.12340000</i>
   <i name="PARAM2">      1.00000000</i>
   <i name="PARAM3">      0.00000000</i>
  </separator>
  <separator name="model GW" >
   <i type="int" name="MODEL_GW">     0</i>
   <i name="MODEL_EPS0">      7.24197194</i>
   <i name="MODEL_ALPHA">      1.00000000</i>
  </separator>
  <separator name="linear response parameters" >
   <i type="logical" name="LEPSILON"> F  </i>
   <i type="logical" name="LRPA"> F  </i>
   <i type="logical" name="LNABLA"> F  </i>
   <i type="logical" name="LVEL"> F  </i>
   <i type="int" name="KINTER">     0</i>
   <i name="CSHIFT">      0.10000000</i>
   <i name="OMEGAMAX">     -1.00000000</i>
   <i name="DEG_THRESHOLD">      0.00200000</i>
   <i name="RTIME">     -0.10000000</i>
   <i name="WPLASMAI">      0.00000000</i>
   <v name="DFIELD">      0.00000000      0.00000000      0.00000000</v>
   <v name="WPLASMA">      0.00000000      0.00000000      0.00000000      0.00000000      0.00000000      0.00000000      0.00000000      0.00000000      0.00000000</v>
  </separator>
  <separator name="orbital magnetization" >
   <i type="logical" name="NUCIND"> F  </i>
   <v name="MAGPOS">      0.00000000      0.00000000      0.00000000</v>
   <i type="logical" name="LNICSALL"> T  </i>
   <i type="logical" name="ORBITALMAG"> F  </i>
   <i type="logical" name="LMAGBLOCH"> F  </i>
   <i type="logical" name="LCHIMAG"> F  </i>
   <i type="logical" name="LGAUGE"> T  </i>
   <i type="int" name="MAGATOM">     0</i>
   <v name="MAGDIPOL">      0.00000000      0.00000000      0.00000000</v>
   <v name="AVECCONST">      0.00000000      0.00000000      0.00000000</v>
  </separator>
  <separator name="response functions" >
   <i type="logical" name="LADDER"> F  </i>
   <i type="logical" name="LRPAFORCE"> F  </i>
   <i type="logical" name="LFXC"> F  </i>
   <i type="logical" name="LHARTREE"> T  </i>
   <i type="int" name="IBSE">     0</i>
   <v type="int" name="KPOINT">    -1     0     0     0</v>
   <i type="logical" name="LTCTE"> F  </i>
   <i type="logical" name="LTETE"> F  </i>
   <i type="logical" name="LTRIPLET"> F  </i>
   <i type="logical" name="LFXCEPS"> F  </i>
   <i type="logical" name="LFXHEG"> F  </i>
   <i type="int" name="NATURALO">     2</i>
   <i type="logical" name="L2ORDER"> F  </i>
   <i type="logical" name="LMP2LT"> F  </i>
   <i type="logical" name="LUSEW"> F  </i>
   <i name="ENCUTGW">     -2.00000000</i>
   <i name="ENCUTGWSOFT">     -2.00000000</i>
   <i name="ENCUTLF">     -1.00000000</i>
   <i type="int" name="LMAXMP2">    -1</i>
   <i name="SCISSOR">      0.00000000</i>
   <i type="int" name="NOMEGA">     0</i>
   <i type="int" name="NOMEGAR">     0</i>
   <i type="int" name="NBANDSGW">    -1</i>
   <i type="int" name="NBANDSO">    -1</i>
   <i type="int" name="NBANDSV">    -1</i>
   <i type="int" name="NELM">   100</i>
   <i type="int" name="NELMHF">     1</i>
   <i type="int" name="DIM">     3</i>
   <i type="int" name="ANTIRES">     0</i>
   <i name="OMEGAMAX">    -30.00000000</i>
   <i name="OMEGAMIN">    -30.00000000</i>
   <i name="OMEGATL">   -200.00000000</i>
   <i type="int" name="OMEGAGRID">   140</i>
   <i name="CSHIFT">     -0.10000000</i>
   <i type="logical" name="SELFENERGY"> F  </i>
   <i type="logical" name="LSPECTRAL"> F  </i>
   <i type="logical" name="LSPECTRALGW"> F  </i>
   <i type="logical" name="LSINGLES"> F  </i>
   <i type="logical" name="LFERMIGW"> F  </i>
   <i type="logical" name="ODDONLYGW"> F  </i>
   <i type="logical" name="EVENONLYGW"> F  </i>
   <i type="int" name="NKREDLFX">     1</i>
   <i type="int" name="NKREDLFY">     1</i>
   <i type="int" name="NKREDLFZ">     1</i>
   <i type="int" name="MAXMEM">  2800</i>
   <i type="int" name="TELESCOPE">     0</i>
   <i type="int" name="TAUPAR">     1</i>
   <i type="int" name="OMEGAPAR">    -1</i>
   <i name="LAMBDA">      1.00000000</i>
  </separator>
  <separator name="External order field" >
   <i name="OFIELD_KAPPA">      0.00000000</i>
   <v name="OFIELD_K">      0.00000000      0.00000000      0.00000000</v>
   <i name="OFIELD_Q6_NEAR">      0.00000000</i>
   <i name="OFIELD_Q6_FAR">      0.00000000</i>
   <i name="OFIELD_A">      0.00000000</i>
  </separator>
 </parameters>
 <atominfo>
  <atoms>       2 </atoms>
  <types>       2 </types>
  <array name="atoms" >
   <dimension dim="1">ion</dimension>
   <field type="string">element</field>
   <field type="int">atomtype</field>
   <set>
    <rc><c>Ga</c><c>   1</c></rc>
    <rc><c>N </c><c>   2</c></rc>
   </set>
  </array>
  <array name="atomtypes" >
   <dimension dim="1">type</dimension>
   <field type="int">atomspertype</field>
   <field type="string">element</field>
   <field>mass</field>
   <field>valence</field>
   <field type="string">pseudopotential</field>
   <set>
    <rc><c>   1</c><c>Ga</c><c>     69.72300000</c><c>      3.00000000</c><c>  PAW_PBE Ga 08Apr2002                  </c></rc>
    <rc><c>   1</c><c>N </c><c>     14.00100000</c><c>      5.00000000</c><c>  PAW_PBE N 08Apr2002                   </c></rc>
   </set>
  </array>
 </atominfo>
 <structure name="initialpos" >
  <crystal>
   <varray name="basis" >
    <v>       0.00000000       2.29386856       2.29386856 </v>
    <v>       2.29386856       0.00000000       2.29386856 </v>
    <v>       2.29386856       2.29386856       0.00000000 </v>
   </varray>
   <i name="volume">     24.13990646 </i>
   <varray name="rec_basis" >
    <v>      -0.21797238       0.21797238       0.21797238 </v>
    <v>       0.21797238      -0.21797238       0.21797238 </v>
    <v>       0.21797238       0.21797238      -0.21797238 </v>
   </varray>
  </crystal>
  <varray name="positions" >
   <v>       0.00000000       0.00000000       0.00000000 </v>
   <v>       0.25000000       0.25000000       0.25000000 </v>
  </varray>
 </structure>
 <calculation>
  <scstep>
   <time name="dav">    0.09    0.09</time>
   <time name="total">    0.23    0.23</time>
   <energy>
    <i name="alphaZ">     26.84662234 </i>
    <i name="ewald">   -282.39919506 </i>
    <i name="hartreedc">    -63.32590025 </i>
    <i name="XCdc">      0.37672965 </i>
    <i name="pawpsdc">    266.99849132 </i>
    <i name="pawaedc">   -244.49430258 </i>
    <i name="eentropy">     -0.00007315 </i>
    <i name="bandstr">      1.11620267 </i>
    <i name="atom">    323.41449014 </i>
    <i name="e_fr_energy">     28.53306508 </i>
    <i name="e_wo_entrp">     28.53313823 </i>
    <i name="e_0_energy">     28.53310165 </i>
   </energy>
  </scstep>
  <scstep>
   <time name="dav">    0.12    0.12</time>
   <time name="total">    0.12    0.12</time>
   <energy>
    <i name="e_fr_energy">    -13.09329041 </i>
    <i name="e_wo_entrp">    -13.09329041 </i>
    <i name="e_0_energy">    -13.09329041 </i>
   </energy>
  </scstep>
  <scstep>
   <time name="dav">    0.10    0.10</time>
   <time name="total">    0.10    0.10</time>
   <energy>
    <i name="e_fr_energy">    -14.15509251 </i>
    <i name="e_wo_entrp">    -14.15509251 </i>
    <i name="e_0_energy">    -14.15509251 </i>
   </energy>
  </scstep>
  <scstep>
   <time name="dav">    0.13    0.13</time>
   <time name="total">    0.13    0.13</time>
   <energy>
    <i name="e_fr_energy">    -14.15885736 </i>
    <i name="e_wo_entrp">    -14.15885736 </i>
    <i name="e_0_energy">    -14.15885736 </i>
   </energy>
  </scstep>
  <scstep>
   <time name="dav">    0.10    0.10</time>
   <time name="total">    0.10    0.10</time>
   <energy>
    <i name="e_fr_energy">    -14.15885999 </i>
    <i name="e_wo_entrp">    -14.15885999 </i>
    <i name="e_0_energy">    -14.15885999 </i>
   </energy>
  </scstep>
  <scstep>
   <time name="dav">    0.13    0.13</time>
   <time name="total">    0.13    0.13</time>
   <energy>
    <i name="e_fr_energy">    -14.15886000 </i>
    <i name="e_wo_entrp">    -14.15886000 </i>
    <i name="e_0_energy">    -14.15886000 </i>
   </energy>
  </scstep>
  <scstep>
   <time name="dav">    0.11    0.11</time>
   <time name="total">    0.11    0.11</time>
   <energy>
    <i name="e_fr_energy">    -14.15886000 </i>
    <i name="e_wo_entrp">    -14.15886000 </i>
    <i name="e_0_energy">    -14.15886000 </i>
   </energy>
  </scstep>
  <scstep>
   <time name="dav">    0.09    0.09</time>
   <time name="total">    0.14    0.14</time>
   <energy>
    <i name="e_fr_energy">    -14.15886000 </i>
    <i name="e_wo_entrp">    -14.15886000 </i>
    <i name="e_0_energy">    -14.15886000 </i>
   </energy>
  </scstep>
  <scstep>
   <time name="dav">    0.10    0.10</time>
   <time name="total">    0.30    0.30</time>
   <energy>
    <i name="e_fr_energy">    -12.54162452 </i>
    <i name="e_wo_entrp">    -12.54162452 </i>
    <i name="e_0_energy">    -12.54162452 </i>
   </energy>
  </scstep>
  <scstep>
   <time name="dav">    0.12    0.12</time>
   <time name="total">    0.31    0.31</time>
   <energy>
    <i name="e_fr_energy">    -12.20250041 </i>
    <i name="e_wo_entrp">    -12.20250041 </i>
    <i name="e_0_energy">    -12.20250041 </i>
   </energy>
  </scstep>
  <scstep>
   <time name="dav">    0.10    0.10</time>
   <time name="total">    0.29    0.29</time>
   <energy>
    <i name="e_fr_energy">    -12.16459237 </i>
    <i name="e_wo_entrp">    -12.16459237 </i>
    <i name="e_0_energy">    -12.16459237 </i>
   </energy>
  </scstep>
  <scstep>
   <time name="dav">    0.12    0.12</time>
   <time name="total">    0.31    0.31</time>
   <energy>
    <i name="e_fr_energy">    -12.16330596 </i>
    <i name="e_wo_entrp">    -12.16330596 </i>
    <i name="e_0_energy">    -12.16330596 </i>
   </energy>
  </scstep>
  <scstep>
   <time name="dav">    0.09    0.09</time>
   <time name="total">    0.28    0.28</time>
   <energy>
    <i name="e_fr_energy">    -12.16337794 </i>
    <i name="e_wo_entrp">    -12.16337794 </i>
    <i name="e_0_energy">    -12.16337794 </i>
   </energy>
  </scstep>
  <scstep>
   <time name="dav">    0.10    0.10</time>
   <time name="total">    0.30    0.30</time>
   <energy>
    <i name="e_fr_energy">    -12.16339254 </i>
    <i name="e_wo_entrp">    -12.16339254 </i>
    <i name="e_0_energy">    -12.16339254 </i>
   </energy>
  </scstep>
  <scstep>
   <time name="dav">    0.11    0.11</time>
   <time name="total">    0.31    0.31</time>
   <energy>
    <i name="e_fr_energy">    -12.16339276 </i>
    <i name="e_wo_entrp">    -12.16339276 </i>
    <i name="e_0_energy">    -12.16339276 </i>
   </energy>
  </scstep>
  <scstep>
   <time name="dav">    0.11    0.11</time>
   <time name="total">    0.25    0.25</time>
   <energy>
    <i name="alphaZ">     26.84662234 </i>
    <i name="ewald">   -282.39919506 </i>
    <i name="hartreedc">    -78.88907053 </i>
    <i name="XCdc">      1.81025699 </i>
    <i name="pawpsdc">    799.30592410 </i>
    <i name="pawaedc">   -777.44217724 </i>
    <i name="eentropy">      0.00000000 </i>
    <i name="bandstr">    -24.81024342 </i>
    <i name="atom">    323.41449014 </i>
    <i name="e_fr_energy">    -12.16339269 </i>
    <i name="e_wo_entrp">    -12.16339269 </i>
    <i name="e_0_energy">    -12.16339269 </i>
   </energy>
  </scstep>
  <structure>
   <crystal>
    <varray name="basis" >
     <v>       0.00000000       2.29386856       2.29386856 </v>
     <v>       2.29386856       0.00000000       2.29386856 </v>
     <v>       2.29386856       2.29386856       0.00000000 </v>
    </varray>
    <i name="volume">     24.13990646 </i>
    <varray name="rec_basis" >
     <v>      -0.21797238       0.21797238       0.21797238 </v>
     <v>       0.21797238      -0.21797238       0.21797238 </v>
     <v>       0.21797238       0.21797238      -0.21797238 </v>
    </varray>
   </crystal>
   <varray name="positions" >
    <v>       0.00000000       0.00000000       0.00000000 </v>
    <v>       0.25000000       0.25000000       0.25000000 </v>
   </varray>
  </structure>
  <varray name="forces" >
   <v>       0.00000000       0.00000000       0.00000000 </v>
   <v>      -0.00000000      -0.00000000      -0.00000000 </v>
  </varray>
  <varray name="stress" >
   <v>       0.10560168       0.00000000      -0.00000000 </v>
   <v>       0.00000000       0.10560168       0.00000000 </v>
   <v>      -0.00000000       0.00000000       0.10560168 </v>
  </varray>
  <energy>
   <i name="e_fr_energy">    -12.16339269 </i>
   <i name="e_wo_entrp">    -12.16339269 </i>
   <i name="e_0_energy">      0.00000000 </i>
  </energy>
  <time name="totalsc">    4.81    4.81</time>
  <eigenvalues>
   <array>
    <dimension dim="1">band</dimension>
    <dimension dim="2">kpoint</dimension>
    <dimension dim="3">spin</dimension>
    <field>eigene</field>
    <field>occ</field>
    <set>
     <set comment="spin 1">
      <set comment="kpoint 1">
       <r>  -12.9216    1.0000 </r>
       <r>    2.5038    1.0000 </r>
       <r>    2.5038    1.0000 </r>
       <r>    2.5038    1.0000 </r>
       <r>    3.9640    0.0000 </r>
       <r>   12.5825    0.0000 </r>
       <r>   12.5825    0.0000 </r>
       <r>   12.5825    0.0000 </r>
      </set>
      <set comment="kpoint 2">
       <r>  -12.8028    1.0000 </r>
       <r>    1.5178    1.0000 </r>
       <r>    2.4217    1.0000 </r>
       <r>    2.4217    1.0000 </r>
       <r>    4.7551    0.0000 </r>
       <r>   12.1562    0.0000 </r>
       <r>   12.7117    0.0000 </r>
       <r>   12.7117    0.0000 </r>
      </set>
      <set comment="kpoint 3">
       <r>  -12.4579    1.0000 </r>
       <r>   -0.0686    1.0000 </r>
       <r>    2.2136    1.0000 </r>
       <r>    2.2136    1.0000 </r>
       <r>    5.7615    0.0000 </r>
       <r>   11.4285    0.0000 </r>
       <r>   12.9526    0.0000 </r>
       <r>   12.9526    0.0000 </r>
      </set>
      <set comment="kpoint 4">
       <r>  -11.9310    1.0000 </r>
       <r>   -1.7015    1.0000 </r>
       <r>    1.9634    1.0000 </r>
       <r>    1.9634    1.0000 </r>
       <r>    6.4601    0.0000 </r>
       <r>   10.9973    0.0000 </r>
       <r>   13.0112    0.0000 </r>
       <r>   13.0112    0.0000 </r>
      </set>
      <set comment="kpoint 5">
       <r>  -11.3305    1.0000 </r>
       <r>   -3.1239    1.0000 </r>
       <r>    1.7519    1.0000 </r>
       <r>    1.7519    1.0000 </r>
       <r>    6.7826    0.0000 </r>
       <r>   10.9391    0.0000 </r>
       <r>   12.8522    0.0000 </r>
       <r>   12.8522    0.0000 </r>
      </set>
      <set comment="kpoint 6">
       <r>  -10.8852    1.0000 </r>
       <r>   -4.0063    1.0000 </r>
       <r>    1.6333    1.0000 </r>
       <r>    1.6333    1.0000 </r>
       <r>    6.8698    0.0000 </r>
       <r>   11.0099    0.0000 </r>
       <r>   12.6978    0.0000 </r>
       <r>   12.6978    0.0000 </r>
      </set>
      <set comment="kpoint 7">
       <r>  -12.7632    1.0000 </r>
       <r>    1.4893    1.0000 </r>
       <r>    2.2580    1.0000 </r>
       <r>    2.2580    1.0000 </r>
       <r>    4.9983    0.0000 </r>
       <r>   11.8787    0.0000 </r>
       <r>   12.8366    0.0000 </r>
       <r>   12.8366    0.0000 </r>
      </set>
      <set comment="kpoint 8">
       <r>  -12.4938    1.0000 </r>
       <r>    0.3218    1.0000 </r>
       <r>    1.9885    1.0000 </r>
       <r>    2.0845    1.0000 </r>
       <r>    5.8446    0.0000 </r>
       <r>   11.2468    0.0000 </r>
       <r>   12.9733    0.0000 </r>
       <r>   13.1232    0.0000 </r>
      </set>
      <set comment="kpoint 9">
       <r>  -12.0259    1.0000 </r>
       <r>   -1.1893    1.0000 </r>
       <r>    1.7141    1.0000 </r>
       <r>    1.8276    1.0000 </r>
       <r>    6.6348    0.0000 </r>
       <r>   10.8164    0.0000 </r>
       <r>   12.7705    0.0000 </r>
       <r>   13.2969    0.0000 </r>
      </set>
      <set comment="kpoint 10">
       <r>  -11.4416    1.0000 </r>
       <r>   -2.6390    1.0000 </r>
       <r>    1.5150    1.0000 </r>
       <r>    1.5183    1.0000 </r>
       <r>    7.1234    0.0000 </r>
       <r>   10.6573    0.0000 </r>
       <r>   12.5379    0.0000 </r>
       <r>   13.2164    0.0000 </r>
      </set>
      <set comment="kpoint 11">
       <r>  -10.9226    1.0000 </r>
       <r>   -3.7006    1.0000 </r>
       <r>    1.2433    1.0000 </r>
       <r>    1.4491    1.0000 </r>
       <r>    7.3242    0.0000 </r>
       <r>   10.5872    0.0000 </r>
       <r>   12.5559    0.0000 </r>
       <r>   13.0252    0.0000 </r>
      </set>
      <set comment="kpoint 12">
       <r>  -10.7571    1.0000 </r>
       <r>   -4.0064    1.0000 </r>
       <r>    1.0814    1.0000 </r>
       <r>    1.5188    1.0000 </r>
       <r>    7.3767    0.0000 </r>
       <r>   10.5782    0.0000 </r>
       <r>   12.5958    0.0000 </r>
       <r>   12.9154    0.0000 </r>
      </set>
      <set comment="kpoint 13">
       <r>  -11.0725    1.0000 </r>
       <r>   -3.4104    1.0000 </r>
       <r>    1.0694    1.0000 </r>
       <r>    1.7088    1.0000 </r>
       <r>    7.3184    0.0000 </r>
       <r>   10.6671    0.0000 </r>
       <r>   12.5158    0.0000 </r>
       <r>   12.9650    0.0000 </r>
      </set>
      <set comment="kpoint 14">
       <r>  -11.6420    1.0000 </r>
       <r>   -2.1837    1.0000 </r>
       <r>    1.2233    1.0000 </r>
       <r>    1.9724    1.0000 </r>
       <r>    7.0360    0.0000 </r>
       <r>   10.8203    0.0000 </r>
       <r>   12.5272    0.0000 </r>
       <r>   13.0995    0.0000 </r>
      </set>
      <set comment="kpoint 15">
       <r>  -12.2012    1.0000 </r>
       <r>   -0.7063    1.0000 </r>
       <r>    1.5371    1.0000 </r>
       <r>    2.2365    1.0000 </r>
       <r>    6.3968    0.0000 </r>
       <r>   11.1251    0.0000 </r>
       <r>   12.7354    0.0000 </r>
       <r>   13.0873    0.0000 </r>
      </set>
      <set comment="kpoint 16">
       <r>  -12.6085    1.0000 </r>
       <r>    0.6634    1.0000 </r>
       <r>    1.9891    1.0000 </r>
       <r>    2.4112    1.0000 </r>
       <r>    5.4949    0.0000 </r>
       <r>   11.6599    0.0000 </r>
       <r>   12.8527    0.0000 </r>
       <r>   12.8577    0.0000 </r>
      </set>
      <set comment="kpoint 17">
       <r>  -12.3049    1.0000 </r>
       <r>    0.0625    1.0000 </r>
       <r>    1.6550    1.0000 </r>
       <r>    1.6550    1.0000 </r>
       <r>    6.3429    0.0000 </r>
       <r>   10.5252    0.0000 </r>
       <r>   13.5041    0.0000 </r>
       <r>   13.5041    0.0000 </r>
      </set>
      <set comment="kpoint 18">
       <r>  -11.9134    1.0000 </r>
       <r>   -0.9358    1.0000 </r>
       <r>    1.3133    1.0000 </r>
       <r>    1.3330    1.0000 </r>
       <r>    6.9403    0.0000 </r>
       <r>   10.0546    0.0000 </r>
       <r>   13.1538    0.0000 </r>
       <r>   13.8409    0.0000 </r>
      </set>
      <set comment="kpoint 19">
       <r>  -11.3822    1.0000 </r>
       <r>   -2.1554    1.0000 </r>
       <r>    0.8639    1.0000 </r>
       <r>    1.1162    1.0000 </r>
       <r>    7.4888    0.0000 </r>
       <r>    9.9795    0.0000 </r>
       <r>   12.4691    0.0000 </r>
       <r>   13.9217    0.0000 </r>
      </set>
      <set comment="kpoint 20">
       <r>  -10.8520    1.0000 </r>
       <r>   -3.2008    1.0000 </r>
       <r>    0.3913    1.0000 </r>
       <r>    1.0559    1.0000 </r>
       <r>    7.8868    0.0000 </r>
       <r>    9.9632    0.0000 </r>
       <r>   12.3916    0.0000 </r>
       <r>   13.7770    0.0000 </r>
      </set>
      <set comment="kpoint 21">
       <r>  -10.5676    1.0000 </r>
       <r>   -3.7024    1.0000 </r>
       <r>    0.0341    1.0000 </r>
       <r>    1.1631    1.0000 </r>
       <r>    8.2003    0.0000 </r>
       <r>    9.8375    0.0000 </r>
       <r>   12.5307    0.0000 </r>
       <r>   13.5885    0.0000 </r>
      </set>
      <set comment="kpoint 22">
       <r>  -10.7240    1.0000 </r>
       <r>   -3.4260    1.0000 </r>
       <r>   -0.1104    1.0000 </r>
       <r>    1.4116    1.0000 </r>
       <r>    8.3627    0.0000 </r>
       <r>    9.8913    0.0000 </r>
       <r>   12.2663    0.0000 </r>
       <r>   13.4848    0.0000 </r>
      </set>
      <set comment="kpoint 23">
       <r>  -11.2067    1.0000 </r>
       <r>   -2.5505    1.0000 </r>
       <r>    0.0477    1.0000 </r>
       <r>    1.7392    1.0000 </r>
       <r>    8.0870    0.0000 </r>
       <r>   10.3362    0.0000 </r>
       <r>   11.8563    0.0000 </r>
       <r>   13.4585    0.0000 </r>
      </set>
      <set comment="kpoint 24">
       <r>  -11.7567    1.0000 </r>
       <r>   -1.5322    1.0000 </r>
       <r>    0.6207    1.0000 </r>
       <r>    2.0512    1.0000 </r>
       <r>    7.3344    0.0000 </r>
       <r>   10.8220    0.0000 </r>
       <r>   12.0261    0.0000 </r>
       <r>   13.3471    0.0000 </r>
      </set>
      <set comment="kpoint 25">
       <r>  -11.6075    1.0000 </r>
       <r>   -1.3073    1.0000 </r>
       <r>    0.9587    1.0000 </r>
       <r>    0.9587    1.0000 </r>
       <r>    6.9742    0.0000 </r>
       <r>    9.4811    0.0000 </r>
       <r>   13.7076    0.0000 </r>
       <r>   14.3960    0.0000 </r>
      </set>
      <set comment="kpoint 26">
       <r>  -11.1590    1.0000 </r>
       <r>   -2.0802    1.0000 </r>
       <r>    0.4970    1.0000 </r>
       <r>    0.6983    1.0000 </r>
       <r>    7.0708    0.0000 </r>
       <r>    9.4167    0.0000 </r>
       <r>   13.0484    0.0000 </r>
       <r>   14.7094    0.0000 </r>
      </set>
      <set comment="kpoint 27">
       <r>  -10.6787    1.0000 </r>
       <r>   -2.8312    1.0000 </r>
       <r>   -0.2004    1.0000 </r>
       <r>    0.6125    1.0000 </r>
       <r>    7.3913    0.0000 </r>
       <r>    9.7133    0.0000 </r>
       <r>   12.7282    0.0000 </r>
       <r>   14.6963    0.0000 </r>
      </set>
      <set comment="kpoint 28">
       <r>  -10.3568    1.0000 </r>
       <r>   -3.2623    1.0000 </r>
       <r>   -0.8543    1.0000 </r>
       <r>    0.7180    1.0000 </r>
       <r>    7.8460    0.0000 </r>
       <r>    9.9476    0.0000 </r>
       <r>   12.7596    0.0000 </r>
       <r>   14.4731    0.0000 </r>
      </set>
      <set comment="kpoint 29">
       <r>  -10.3787    1.0000 </r>
       <r>   -3.2058    1.0000 </r>
       <r>   -1.1848    1.0000 </r>
       <r>    0.9915    1.0000 </r>
       <r>    8.4501    0.0000 </r>
       <r>    9.8376    0.0000 </r>
       <r>   12.4870    0.0000 </r>
       <r>   14.1791    0.0000 </r>
      </set>
      <set comment="kpoint 30">
       <r>  -10.7265    1.0000 </r>
       <r>   -2.8671    1.0000 </r>
       <r>   -0.9074    1.0000 </r>
       <r>    1.3677    1.0000 </r>
       <r>    8.9102    0.0000 </r>
       <r>    9.6365    0.0000 </r>
       <r>   11.9423    0.0000 </r>
       <r>   13.8511    0.0000 </r>
      </set>
      <set comment="kpoint 31">
       <r>  -10.8150    1.0000 </r>
       <r>   -2.5136    1.0000 </r>
       <r>    0.3874    1.0000 </r>
       <r>    0.3874    1.0000 </r>
       <r>    6.4913    0.0000 </r>
       <r>    9.1425    0.0000 </r>
       <r>   13.4870    0.0000 </r>
       <r>   15.2945    0.0000 </r>
      </set>
      <set comment="kpoint 32">
       <r>  -10.4428    1.0000 </r>
       <r>   -2.9840    1.0000 </r>
       <r>   -0.1032    1.0000 </r>
       <r>    0.2559    1.0000 </r>
       <r>    6.4880    0.0000 </r>
       <r>    9.2539    0.0000 </r>
       <r>   13.4808    0.0000 </r>
       <r>   15.4871    0.0000 </r>
      </set>
      <set comment="kpoint 33">
       <r>  -10.1841    1.0000 </r>
       <r>   -3.1664    1.0000 </r>
       <r>   -0.9312    1.0000 </r>
       <r>    0.3304    1.0000 </r>
       <r>    6.9706    0.0000 </r>
       <r>    9.7229    0.0000 </r>
       <r>   13.4556    0.0000 </r>
       <r>   15.2919    0.0000 </r>
      </set>
      <set comment="kpoint 34">
       <r>  -10.1623    1.0000 </r>
       <r>   -3.0740    1.0000 </r>
       <r>   -1.5324    1.0000 </r>
       <r>    0.5954    1.0000 </r>
       <r>    7.6613    0.0000 </r>
       <r>   10.0894    0.0000 </r>
       <r>   13.1203    0.0000 </r>
       <r>   14.8227    0.0000 </r>
      </set>
      <set comment="kpoint 35">
       <r>  -10.2260    1.0000 </r>
       <r>   -3.3033    1.0000 </r>
       <r>    0.0722    1.0000 </r>
       <r>    0.0722    1.0000 </r>
       <r>    5.9567    0.0000 </r>
       <r>    8.9827    0.0000 </r>
       <r>   13.8279    0.0000 </r>
       <r>   15.8988    0.0000 </r>
      </set>
      <set comment="kpoint 36">
       <r>  -10.1256    1.0000 </r>
       <r>   -3.3580    1.0000 </r>
       <r>   -0.3215    1.0000 </r>
       <r>    0.0988    1.0000 </r>
       <r>    6.2110    0.0000 </r>
       <r>    9.1837    0.0000 </r>
       <r>   13.8385    0.0000 </r>
       <r>   15.7951    0.0000 </r>
      </set>
      <set comment="kpoint 37">
       <r>  -12.1622    1.0000 </r>
       <r>   -0.5478    1.0000 </r>
       <r>    1.3421    1.0000 </r>
       <r>    1.9778    1.0000 </r>
       <r>    6.6005    0.0000 </r>
       <r>   10.7253    0.0000 </r>
       <r>   12.8262    0.0000 </r>
       <r>   13.4087    0.0000 </r>
      </set>
      <set comment="kpoint 38">
       <r>  -11.6594    1.0000 </r>
       <r>   -1.7441    1.0000 </r>
       <r>    0.7981    1.0000 </r>
       <r>    1.7422    1.0000 </r>
       <r>    7.3656    0.0000 </r>
       <r>   10.4461    0.0000 </r>
       <r>   12.2568    0.0000 </r>
       <r>   13.5925    0.0000 </r>
      </set>
      <set comment="kpoint 39">
       <r>  -11.0939    1.0000 </r>
       <r>   -2.9331    1.0000 </r>
       <r>    0.4891    1.0000 </r>
       <r>    1.4533    1.0000 </r>
       <r>    7.8729    0.0000 </r>
       <r>   10.2221    0.0000 </r>
       <r>   12.1334    0.0000 </r>
       <r>   13.5324    0.0000 </r>
      </set>
      <set comment="kpoint 40">
       <r>  -10.6819    1.0000 </r>
       <r>   -3.7028    1.0000 </r>
       <r>    0.3630    1.0000 </r>
       <r>    1.2570    1.0000 </r>
       <r>    8.0945    0.0000 </r>
       <r>    9.9883    0.0000 </r>
       <r>   12.3892    0.0000 </r>
       <r>   13.4345    0.0000 </r>
      </set>
      <set comment="kpoint 41">
       <r>  -11.4895    1.0000 </r>
       <r>   -1.6769    1.0000 </r>
       <r>    0.6144    1.0000 </r>
       <r>    1.1783    1.0000 </r>
       <r>    7.3851    0.0000 </r>
       <r>    9.7533    0.0000 </r>
       <r>   12.6449    0.0000 </r>
       <r>   14.2615    0.0000 </r>
      </set>
      <set comment="kpoint 42">
       <r>  -10.9754    1.0000 </r>
       <r>   -2.5415    1.0000 </r>
       <r>    0.0345    1.0000 </r>
       <r>    0.8921    1.0000 </r>
       <r>    7.8895    0.0000 </r>
       <r>    9.8038    0.0000 </r>
       <r>   12.1590    0.0000 </r>
       <r>   14.3519    0.0000 </r>
      </set>
      <set comment="kpoint 43">
       <r>  -10.5392    1.0000 </r>
       <r>   -3.2365    1.0000 </r>
       <r>   -0.4022    1.0000 </r>
       <r>    0.7280    1.0000 </r>
       <r>    8.3420    0.0000 </r>
       <r>    9.7839    0.0000 </r>
       <r>   12.2412    0.0000 </r>
       <r>   14.2027    0.0000 </r>
      </set>
      <set comment="kpoint 44">
       <r>  -10.4103    1.0000 </r>
       <r>   -3.4256    1.0000 </r>
       <r>   -0.6674    1.0000 </r>
       <r>    0.8133    1.0000 </r>
       <r>    8.8115    0.0000 </r>
       <r>    9.5293    0.0000 </r>
       <r>   12.3113    0.0000 </r>
       <r>   14.0621    0.0000 </r>
      </set>
      <set comment="kpoint 45">
       <r>  -10.6761    1.0000 </r>
       <r>   -3.0243    1.0000 </r>
       <r>   -0.6390    1.0000 </r>
       <r>    1.0994    1.0000 </r>
       <r>    8.9462    0.0000 </r>
       <r>    9.5470    0.0000 </r>
       <r>   11.8883    0.0000 </r>
       <r>   14.0098    0.0000 </r>
      </set>
      <set comment="kpoint 46">
       <r>  -11.1651    1.0000 </r>
       <r>   -2.3559    1.0000 </r>
       <r>   -0.1468    1.0000 </r>
       <r>    1.4643    1.0000 </r>
       <r>    8.2716    0.0000 </r>
       <r>   10.0815    0.0000 </r>
       <r>   11.7066    0.0000 </r>
       <r>   13.8951    0.0000 </r>
      </set>
      <set comment="kpoint 47">
       <r>  -10.7379    1.0000 </r>
       <r>   -2.6184    1.0000 </r>
       <r>    0.0361    1.0000 </r>
       <r>    0.3770    1.0000 </r>
       <r>    7.0969    0.0000 </r>
       <r>    9.4728    0.0000 </r>
       <r>   12.9044    0.0000 </r>
       <r>   14.9842    0.0000 </r>
      </set>
      <set comment="kpoint 48">
       <r>  -10.3566    1.0000 </r>
       <r>   -3.0119    1.0000 </r>
       <r>   -0.6423    1.0000 </r>
       <r>    0.1934    1.0000 </r>
       <r>    7.5145    0.0000 </r>
       <r>    9.8274    0.0000 </r>
       <r>   12.7877    0.0000 </r>
       <r>   14.7163    0.0000 </r>
      </set>
      <set comment="kpoint 49">
       <r>  -10.1861    1.0000 </r>
       <r>   -3.1003    1.0000 </r>
       <r>   -1.2871    1.0000 </r>
       <r>    0.3205    1.0000 </r>
       <r>    8.0812    0.0000 </r>
       <r>   10.0820    0.0000 </r>
       <r>   12.7395    0.0000 </r>
       <r>   14.3478    0.0000 </r>
      </set>
      <set comment="kpoint 50">
       <r>  -10.3195    1.0000 </r>
       <r>   -3.0200    1.0000 </r>
       <r>   -1.3709    1.0000 </r>
       <r>    0.6623    1.0000 </r>
       <r>    8.7601    0.0000 </r>
       <r>    9.8287    0.0000 </r>
       <r>   12.2114    0.0000 </r>
       <r>   14.2932    0.0000 </r>
      </set>
      <set comment="kpoint 51">
       <r>  -10.1931    1.0000 </r>
       <r>   -3.2157    1.0000 </r>
       <r>   -0.2495    1.0000 </r>
       <r>   -0.1455    1.0000 </r>
       <r>    6.6260    0.0000 </r>
       <r>    9.3948    0.0000 </r>
       <r>   13.6228    0.0000 </r>
       <r>   15.0897    0.0000 </r>
      </set>
      <set comment="kpoint 52">
       <r>  -10.0957    1.0000 </r>
       <r>   -3.1563    1.0000 </r>
       <r>   -0.9614    1.0000 </r>
       <r>   -0.0463    1.0000 </r>
       <r>    7.2795    0.0000 </r>
       <r>    9.8556    0.0000 </r>
       <r>   13.5612    0.0000 </r>
       <r>   14.3310    0.0000 </r>
      </set>
      <set comment="kpoint 53">
       <r>  -10.5422    1.0000 </r>
       <r>   -2.8554    1.0000 </r>
       <r>   -0.7076    1.0000 </r>
       <r>    0.4710    1.0000 </r>
       <r>    8.4690    0.0000 </r>
       <r>    9.8737    0.0000 </r>
       <r>   11.8644    0.0000 </r>
       <r>   14.4747    0.0000 </r>
      </set>
      <set comment="kpoint 54">
       <r>  -10.2469    1.0000 </r>
       <r>   -3.0689    1.0000 </r>
       <r>   -1.0928    1.0000 </r>
       <r>    0.1363    1.0000 </r>
       <r>    8.8285    0.0000 </r>
       <r>    9.9268    0.0000 </r>
       <r>   12.0758    0.0000 </r>
       <r>   14.2157    0.0000 </r>
      </set>
      <set comment="kpoint 55">
       <r>  -10.1247    1.0000 </r>
       <r>   -3.0223    1.0000 </r>
       <r>   -0.8769    1.0000 </r>
       <r>   -0.4497    1.0000 </r>
       <r>    8.0822    0.0000 </r>
       <r>   10.1618    0.0000 </r>
       <r>   12.7327    0.0000 </r>
       <r>   13.9780    0.0000 </r>
      </set>
      <set comment="kpoint 56">
       <r>  -10.0832    1.0000 </r>
       <r>   -2.9516    1.0000 </r>
       <r>   -1.2398    1.0000 </r>
       <r>   -0.3946    1.0000 </r>
       <r>    8.6111    0.0000 </r>
       <r>   10.3373    0.0000 </r>
       <r>   12.4399    0.0000 </r>
       <r>   13.7000    0.0000 </r>
      </set>
     </set>
    </set>
   </array>
  </eigenvalues>
  <separator name="orbital magnetization" >
   <v name="MAGDIPOLOUT">      0.00000000      0.00000000      0.00000000</v>
  </separator>
  <dos>
   <i name="efermi">      3.07369255 </i>
   <total>
    <array>
     <dimension dim="1">gridpoints</dimension>
     <dimension dim="2">spin</dimension>
     <field>energy</field>
     <field>total</field>
     <field>integrated</field>
     <set>
      <set comment="spin 1">
       <r>   -14.3626     0.0000     0.0000 </r>
       <r>   -11.1924     0.0111     0.5447 </r>
       <r>    -8.0222     0.0000     2.0000 </r>
       <r>    -4.8519     0.0000     2.0000 </r>
       <r>    -1.6817     0.0294     3.7039 </r>
       <r>     1.4886     0.0582     7.2273 </r>
       <r>     4.6588     0.0000     8.0015 </r>
       <r>     7.8291     0.0001     9.0086 </r>
       <r>    10.9993     0.0064    11.8594 </r>
       <r>    14.1695     0.0010    15.1467 </r>
       <r>    17.3398     0.0000    16.0000 </r>
      </set>
     </set>
    </array>
   </total>
   <partial>
    <array>
     <dimension dim="1">gridpoints</dimension>
     <dimension dim="2">spin</dimension>
     <dimension dim="3">ion</dimension>
     <field>energy</field>
     <field>  s  </field>
     <field>  p  </field>
     <field>  d  </field>
     <set>
      <set comment="ion 1">
       <set comment="spin 1">
        <r>   -14.3626     0.0000     0.0000     0.0000 </r>
        <r>   -11.1924     0.0018     0.0011     0.0002 </r>
        <r>    -8.0222     0.0000     0.0000     0.0000 </r>
        <r>    -4.8519     0.0000     0.0000     0.0000 </r>
        <r>    -1.6817     0.0067     0.0033     0.0018 </r>
        <r>     1.4886     0.0003     0.0112     0.0043 </r>
        <r>     4.6588     0.0000     0.0000     0.0000 </r>
        <r>     7.8291     0.0000     0.0000     0.0000 </r>
        <r>    10.9993     0.0005     0.0009     0.0004 </r>
        <r>    14.1695     0.0000     0.0004     0.0001 </r>
        <r>    17.3398     0.0000     0.0000     0.0000 </r>
       </set>
      </set>
      <set comment="ion 2">
       <set comment="spin 1">
        <r>   -14.3626     0.0000     0.0000     0.0000 </r>
        <r>   -11.1924     0.0059     0.0000     0.0000 </r>
        <r>    -8.0222     0.0000     0.0000     0.0000 </r>
        <r>    -4.8519     0.0000     0.0000     0.0000 </r>
        <r>    -1.6817     0.0028     0.0084     0.0000 </r>
        <r>     1.4886     0.0002     0.0312     0.0000 </r>
        <r>     4.6588     0.0000     0.0000     0.0000 </r>
        <r>     7.8291     0.0000     0.0000     0.0000 </r>
        <r>    10.9993     0.0000     0.0022     0.0000 </r>
        <r>    14.1695     0.0000     0.0002     0.0000 </r>
        <r>    17.3398     0.0000     0.0000     0.0000 </r>
       </set>
      </set>
     </set>
    </array>
   </partial>
  </dos>
  <projected>
   <eigenvalues>
    <array>
     <dimension dim="1">band</dimension>
     <dimension dim="2">kpoint</dimension>
     <dimension dim="3">spin</dimension>
     <field>eigene</field>
     <field>occ</field>
     <set>
      <set comment="spin 1">
       <set comment="kpoint 1">
        <r>  -12.9216    1.0000 </r>
        <r>    2.5038    1.0000 </r>
        <r>    2.5038    1.0000 </r>
        <r>    2.5038    1.0000 </r>
        <r>    3.9640    0.0000 </r>
        <r>   12.5825    0.0000 </r>
        <r>   12.5825    0.0000 </r>
        <r>   12.5825    0.0000 </r>
       </set>
       <set comment="kpoint 2">
        <r>  -12.8028    1.0000 </r>
        <r>    1.5178    1.0000 </r>
        <r>    2.4217    1.0000 </r>
        <r>    2.4217    1.0000 </r>
        <r>    4.7551    0.0000 </r>
        <r>   12.1562    0.0000 </r>
        <r>   12.7117    0.0000 </r>
        <r>   12.7117    0.0000 </r>
       </set>
       <set comment="kpoint 3">
        <r>  -12.4579    1.0000 </r>
        <r>   -0.0686    1.0000 </r>
        <r>    2.2136    1.0000 </r>
        <r>    2.2136    1.0000 </r>
        <r>    5.7615    0.0000 </r>
        <r>   11.4285    0.0000 </r>
        <r>   12.9526    0.0000 </r>
        <r>   12.9526    0.0000 </r>
       </set>
       <set comment="kpoint 4">
        <r>  -11.9310    1.0000 </r>
        <r>   -1.7015    1.0000 </r>
        <r>    1.9634    1.0000 </r>
        <r>    1.9634    1.0000 </r>
        <r>    6.4601    0.0000 </r>
        <r>   10.9973    0.0000 </r>
        <r>   13.0112    0.0000 </r>
        <r>   13.0112    0.0000 </r>
       </set>
       <set comment="kpoint 5">
        <r>  -11.3305    1.0000 </r>
        <r>   -3.1239    1.0000 </r>
        <r>    1.7519    1.0000 </r>
        <r>    1.7519    1.0000 </r>
        <r>    6.7826    0.0000 </r>
        <r>   10.9391    0.0000 </r>
        <r>   12.8522    0.0000 </r>
        <r>   12.8522    0.0000 </r>
       </set>
       <set comment="kpoint 6">
        <r>  -10.8852    1.0000 </r>
        <r>   -4.0063    1.0000 </r>
        <r>    1.6333    1.0000 </r>
        <r>    1.6333    1.0000 </r>
        <r>    6.8698    0.0000 </r>
        <r>   11.0099    0.0000 </r>
        <r>   12.6978    0.0000 </r>
        <r>   12.6978    0.0000 </r>
       </set>
       <set comment="kpoint 7">
        <r>  -12.7632    1.0000 </r>
        <r>    1.4893    1.0000 </r>
        <r>    2.2580    1.0000 </r>
        <r>    2.2580    1.0000 </r>
        <r>    4.9983    0.0000 </r>
        <r>   11.8787    0.0000 </r>
        <r>   12.8366    0.0000 </r>
        <r>   12.8366    0.0000 </r>
       </set>
       <set comment="kpoint 8">
        <r>  -12.4938    1.0000 </r>
        <r>    0.3218    1.0000 </r>
        <r>    1.9885    1.0000 </r>
        <r>    2.0845    1.0000 </r>
        <r>    5.8446    0.0000 </r>
        <r>   11.2468    0.0000 </r>
        <r>   12.9733    0.0000 </r>
        <r>   13.1232    0.0000 </r>
       </set>
       <set comment="kpoint 9">
        <r>  -12.0259    1.0000 </r>
        <r>   -1.1893    1.0000 </r>
        <r>    1.7141    1.0000 </r>
        <r>    1.8276    1.0000 </r>
        <r>    6.6348    0.0000 </r>
        <r>   10.8164    0.0000 </r>
        <r>   12.7705    0.0000 </r>
        <r>   13.2969    0.0000 </r>
       </set>
       <set comment="kpoint 10">
        <r>  -11.4416    1.0000 </r>
        <r>   -2.6390    1.0000 </r>
        <r>    1.5150    1.0000 </r>
        <r>    1.5183    1.0000 </r>
        <r>    7.1234    0.0000 </r>
        <r>   10.6573    0.0000 </r>
        <r>   12.5379    0.0000 </r>
        <r>   13.2164    0.0000 </r>
       </set>
       <set comment="kpoint 11">
        <r>  -10.9226    1.0000 </r>
        <r>   -3.7006    1.0000 </r>
        <r>    1.2433    1.0000 </r>
        <r>    1.4491    1.0000 </r>
        <r>    7.3242    0.0000 </r>
        <r>   10.5872    0.0000 </r>
        <r>   12.5559    0.0000 </r>
        <r>   13.0252    0.0000 </r>
       </set>
       <set comment="kpoint 12">
        <r>  -10.7571    1.0000 </r>
        <r>   -4.0064    1.0000 </r>
        <r>    1.0814    1.0000 </r>
        <r>    1.5188    1.0000 </r>
        <r>    7.3767    0.0000 </r>
        <r>   10.5782    0.0000 </r>
        <r>   12.5958    0.0000 </r>
        <r>   12.9154    0.0000 </r>
       </set>
       <set comment="kpoint 13">
        <r>  -11.0725    1.0000 </r>
        <r>   -3.4104    1.0000 </r>
        <r>    1.0694    1.0000 </r>
        <r>    1.7088    1.0000 </r>
        <r>    7.3184    0.0000 </r>
        <r>   10.6671    0.0000 </r>
        <r>   12.5158    0.0000 </r>
        <r>   12.9650    0.0000 </r>
       </set>
       <set comment="kpoint 14">
        <r>  -11.6420    1.0000 </r>
        <r>   -2.1837    1.0000 </r>
        <r>    1.2233    1.0000 </r>
        <r>    1.9724    1.0000 </r>
        <r>    7.0360    0.0000 </r>
        <r>   10.8203    0.0000 </r>
        <r>   12.5272    0.0000 </r>
        <r>   13.0995    0.0000 </r>
       </set>
       <set comment="kpoint 15">
        <r>  -12.2012    1.0000 </r>
        <r>   -0.7063    1.0000 </r>
        <r>    1.5371    1.0000 </r>
        <r>    2.2365    1.0000 </r>
        <r>    6.3968    0.0000 </r>
        <r>   11.1251    0.0000 </r>
        <r>   12.7354    0.0000 </r>
        <r>   13.0873    0.0000 </r>
       </set>
       <set comment="kpoint 16">
        <r>  -12.6085    1.0000 </r>
        <r>    0.6634    1.0000 </r>
        <r>    1.9891    1.0000 </r>
        <r>    2.4112    1.0000 </r>
        <r>    5.4949    0.0000 </r>
        <r>   11.6599    0.0000 </r>
        <r>   12.8527    0.0000 </r>
        <r>   12.8577    0.0000 </r>
       </set>
       <set comment="kpoint 17">
        <r>  -12.3049    1.0000 </r>
        <r>    0.0625    1.0000 </r>
        <r>    1.6550    1.0000 </r>
        <r>    1.6550    1.0000 </r>
        <r>    6.3429    0.0000 </r>
        <r>   10.5252    0.0000 </r>
        <r>   13.5041    0.0000 </r>
        <r>   13.5041    0.0000 </r>
       </set>
       <set comment="kpoint 18">
        <r>  -11.9134    1.0000 </r>
        <r>   -0.9358    1.0000 </r>
        <r>    1.3133    1.0000 </r>
        <r>    1.3330    1.0000 </r>
        <r>    6.9403    0.0000 </r>
        <r>   10.0546    0.0000 </r>
        <r>   13.1538    0.0000 </r>
        <r>   13.8409    0.0000 </r>
       </set>
       <set comment="kpoint 19">
        <r>  -11.3822    1.0000 </r>
        <r>   -2.1554    1.0000 </r>
        <r>    0.8639    1.0000 </r>
        <r>    1.1162    1.0000 </r>
        <r>    7.4888    0.0000 </r>
        <r>    9.9795    0.0000 </r>
        <r>   12.4691    0.0000 </r>
        <r>   13.9217    0.0000 </r>
       </set>
       <set comment="kpoint 20">
        <r>  -10.8520    1.0000 </r>
        <r>   -3.2008    1.0000 </r>
        <r>    0.3913    1.0000 </r>
        <r>    1.0559    1.0000 </r>
        <r>    7.8868    0.0000 </r>
        <r>    9.9632    0.0000 </r>
        <r>   12.3916    0.0000 </r>
        <r>   13.7770    0.0000 </r>
       </set>
       <set comment="kpoint 21">
        <r>  -10.5676    1.0000 </r>
        <r>   -3.7024    1.0000 </r>
        <r>    0.0341    1.0000 </r>
        <r>    1.1631    1.0000 </r>
        <r>    8.2003    0.0000 </r>
        <r>    9.8375    0.0000 </r>
        <r>   12.5307    0.0000 </r>
        <r>   13.5885    0.0000 </r>
       </set>
       <set comment="kpoint 22">
        <r>  -10.7240    1.0000 </r>
        <r>   -3.4260    1.0000 </r>
        <r>   -0.1104    1.0000 </r>
        <r>    1.4116    1.0000 </r>
        <r>    8.3627    0.0000 </r>
        <r>    9.8913    0.0000 </r>
        <r>   12.2663    0.0000 </r>
        <r>   13.4848    0.0000 </r>
       </set>
       <set comment="kpoint 23">
        <r>  -11.2067    1.0000 </r>
        <r>   -2.5505    1.0000 </r>
        <r>    0.0477    1.0000 </r>
        <r>    1.7392    1.0000 </r>
        <r>    8.0870    0.0000 </r>
        <r>   10.3362    0.0000 </r>
        <r>   11.8563    0.0000 </r>
        <r>   13.4585    0.0000 </r>
       </set>
       <set comment="kpoint 24">
        <r>  -11.7567    1.0000 </r>
        <r>   -1.5322    1.0000 </r>
        <r>    0.6207    1.0000 </r>
        <r>    2.0512    1.0000 </r>
        <r>    7.3344    0.0000 </r>
        <r>   10.8220    0.0000 </r>
        <r>   12.0261    0.0000 </r>
        <r>   13.3471    0.0000 </r>
       </set>
       <set comment="kpoint 25">
        <r>  -11.6075    1.0000 </r>
        <r>   -1.3073    1.0000 </r>
        <r>    0.9587    1.0000 </r>
        <r>    0.9587    1.0000 </r>
        <r>    6.9742    0.0000 </r>
        <r>    9.4811    0.0000 </r>
        <r>   13.7076    0.0000 </r>
        <r>   14.3960    0.0000 </r>
       </set>
       <set comment="kpoint 26">
        <r>  -11.1590    1.0000 </r>
        <r>   -2.0802    1.0000 </r>
        <r>    0.4970    1.0000 </r>
        <r>    0.6983    1.0000 </r>
        <r>    7.0708    0.0000 </r>
        <r>    9.4167    0.0000 </r>
        <r>   13.0484    0.0000 </r>
        <r>   14.7094    0.0000 </r>
       </set>
       <set comment="kpoint 27">
        <r>  -10.6787    1.0000 </r>
        <r>   -2.8312    1.0000 </r>
        <r>   -0.2004    1.0000 </r>
        <r>    0.6125    1.0000 </r>
        <r>    7.3913    0.0000 </r>
        <r>    9.7133    0.0000 </r>
        <r>   12.7282    0.0000 </r>
        <r>   14.6963    0.0000 </r>
       </set>
       <set comment="kpoint 28">
        <r>  -10.3568    1.0000 </r>
        <r>   -3.2623    1.0000 </r>
        <r>   -0.8543    1.0000 </r>
        <r>    0.7180    1.0000 </r>
        <r>    7.8460    0.0000 </r>
        <r>    9.9476    0.0000 </r>
        <r>   12.7596    0.0000 </r>
        <r>   14.4731    0.0000 </r>
       </set>
       <set comment="kpoint 29">
        <r>  -10.3787    1.0000 </r>
        <r>   -3.2058    1.0000 </r>
        <r>   -1.1848    1.0000 </r>
        <r>    0.9915    1.0000 </r>
        <r>    8.4501    0.0000 </r>
        <r>    9.8376    0.0000 </r>
        <r>   12.4870    0.0000 </r>
        <r>   14.1791    0.0000 </r>
       </set>
       <set comment="kpoint 30">
        <r>  -10.7265    1.0000 </r>
        <r>   -2.8671    1.0000 </r>
        <r>   -0.9074    1.0000 </r>
        <r>    1.3677    1.0000 </r>
        <r>    8.9102    0.0000 </r>
        <r>    9.6365    0.0000 </r>
        <r>   11.9423    0.0000 </r>
        <r>   13.8511    0.0000 </r>
       </set>
       <set comment="kpoint 31">
        <r>  -10.8150    1.0000 </r>
        <r>   -2.5136    1.0000 </r>
        <r>    0.3874    1.0000 </r>
        <r>    0.3874    1.0000 </r>
        <r>    6.4913    0.0000 </r>
        <r>    9.1425    0.0000 </r>
        <r>   13.4870    0.0000 </r>
        <r>   15.2945    0.0000 </r>
       </set>
       <set comment="kpoint 32">
        <r>  -10.4428    1.0000 </r>
        <r>   -2.9840    1.0000 </r>
        <r>   -0.1032    1.0000 </r>
        <r>    0.2559    1.0000 </r>
        <r>    6.4880    0.0000 </r>
        <r>    9.2539    0.0000 </r>
        <r>   13.4808    0.0000 </r>
        <r>   15.4871    0.0000 </r>
       </set>
       <set comment="kpoint 33">
        <r>  -10.1841    1.0000 </r>
        <r>   -3.1664    1.0000 </r>
        <r>   -0.9312    1.0000 </r>
        <r>    0.3304    1.0000 </r>
        <r>    6.9706    0.0000 </r>
        <r>    9.7229    0.0000 </r>
        <r>   13.4556    0.0000 </r>
        <r>   15.2919    0.0000 </r>
       </set>
       <set comment="kpoint 34">
        <r>  -10.1623    1.0000 </r>
        <r>   -3.0740    1.0000 </r>
        <r>   -1.5324    1.0000 </r>
        <r>    0.5954    1.0000 </r>
        <r>    7.6613    0.0000 </r>
        <r>   10.0894    0.0000 </r>
        <r>   13.1203    0.0000 </r>
        <r>   14.8227    0.0000 </r>
       </set>
       <set comment="kpoint 35">
        <r>  -10.2260    1.0000 </r>
        <r>   -3.3033    1.0000 </r>
        <r>    0.0722    1.0000 </r>
        <r>    0.0722    1.0000 </r>
        <r>    5.9567    0.0000 </r>
        <r>    8.9827    0.0000 </r>
        <r>   13.8279    0.0000 </r>
        <r>   15.8988    0.0000 </r>
       </set>
       <set comment="kpoint 36">
        <r>  -10.1256    1.0000 </r>
        <r>   -3.3580    1.0000 </r>
        <r>   -0.3215    1.0000 </r>
        <r>    0.0988    1.0000 </r>
        <r>    6.2110    0.0000 </r>
        <r>    9.1837    0.0000 </r>
        <r>   13.8385    0.0000 </r>
        <r>   15.7951    0.0000 </r>
       </set>
       <set comment="kpoint 37">
        <r>  -12.1622    1.0000 </r>
        <r>   -0.5478    1.0000 </r>
        <r>    1.3421    1.0000 </r>
        <r>    1.9778    1.0000 </r>
        <r>    6.6005    0.0000 </r>
        <r>   10.7253    0.0000 </r>
        <r>   12.8262    0.0000 </r>
        <r>   13.4087    0.0000 </r>
       </set>
       <set comment="kpoint 38">
        <r>  -11.6594    1.0000 </r>
        <r>   -1.7441    1.0000 </r>
        <r>    0.7981    1.0000 </r>
        <r>    1.7422    1.0000 </r>
        <r>    7.3656    0.0000 </r>
        <r>   10.4461    0.0000 </r>
        <r>   12.2568    0.0000 </r>
        <r>   13.5925    0.0000 </r>
       </set>
       <set comment="kpoint 39">
        <r>  -11.0939    1.0000 </r>
        <r>   -2.9331    1.0000 </r>
        <r>    0.4891    1.0000 </r>
        <r>    1.4533    1.0000 </r>
        <r>    7.8729    0.0000 </r>
        <r>   10.2221    0.0000 </r>
        <r>   12.1334    0.0000 </r>
        <r>   13.5324    0.0000 </r>
       </set>
       <set comment="kpoint 40">
        <r>  -10.6819    1.0000 </r>
        <r>   -3.7028    1.0000 </r>
        <r>    0.3630    1.0000 </r>
        <r>    1.2570    1.0000 </r>
        <r>    8.0945    0.0000 </r>
        <r>    9.9883    0.0000 </r>
        <r>   12.3892    0.0000 </r>
        <r>   13.4345    0.0000 </r>
       </set>
       <set comment="kpoint 41">
        <r>  -11.4895    1.0000 </r>
        <r>   -1.6769    1.0000 </r>
        <r>    0.6144    1.0000 </r>
        <r>    1.1783    1.0000 </r>
        <r>    7.3851    0.0000 </r>
        <r>    9.7533    0.0000 </r>
        <r>   12.6449    0.0000 </r>
        <r>   14.2615    0.0000 </r>
       </set>
       <set comment="kpoint 42">
        <r>  -10.9754    1.0000 </r>
        <r>   -2.5415    1.0000 </r>
        <r>    0.0345    1.0000 </r>
        <r>    0.8921    1.0000 </r>
        <r>    7.8895    0.0000 </r>
        <r>    9.8038    0.0000 </r>
        <r>   12.1590    0.0000 </r>
        <r>   14.3519    0.0000 </r>
       </set>
       <set comment="kpoint 43">
        <r>  -10.5392    1.0000 </r>
        <r>   -3.2365    1.0000 </r>
        <r>   -0.4022    1.0000 </r>
        <r>    0.7280    1.0000 </r>
        <r>    8.3420    0.0000 </r>
        <r>    9.7839    0.0000 </r>
        <r>   12.2412    0.0000 </r>
        <r>   14.2027    0.0000 </r>
       </set>
       <set comment="kpoint 44">
        <r>  -10.4103    1.0000 </r>
        <r>   -3.4256    1.0000 </r>
        <r>   -0.6674    1.0000 </r>
        <r>    0.8133    1.0000 </r>
        <r>    8.8115    0.0000 </r>
        <r>    9.5293    0.0000 </r>
        <r>   12.3113    0.0000 </r>
        <r>   14.0621    0.0000 </r>
       </set>
       <set comment="kpoint 45">
        <r>  -10.6761    1.0000 </r>
        <r>   -3.0243    1.0000 </r>
        <r>   -0.6390    1.0000 </r>
        <r>    1.0994    1.0000 </r>
        <r>    8.9462    0.0000 </r>
        <r>    9.5470    0.0000 </r>
        <r>   11.8883    0.0000 </r>
        <r>   14.0098    0.0000 </r>
       </set>
       <set comment="kpoint 46">
        <r>  -11.1651    1.0000 </r>
        <r>   -2.3559    1.0000 </r>
        <r>   -0.1468    1.0000 </r>
        <r>    1.4643    1.0000 </r>
        <r>    8.2716    0.0000 </r>
        <r>   10.0815    0.0000 </r>
        <r>   11.7066    0.0000 </r>
        <r>   13.8951    0.0000 </r>
       </set>
       <set comment="kpoint 47">
        <r>  -10.7379    1.0000 </r>
        <r>   -2.6184    1.0000 </r>
        <r>    0.0361    1.0000 </r>
        <r>    0.3770    1.0000 </r>
        <r>    7.0969    0.0000 </r>
        <r>    9.4728    0.0000 </r>
        <r>   12.9044    0.0000 </r>
        <r>   14.9842    0.0000 </r>
       </set>
       <set comment="kpoint 48">
        <r>  -10.3566    1.0000 </r>
        <r>   -3.0119    1.0000 </r>
        <r>   -0.6423    1.0000 </r>
        <r>    0.1934    1.0000 </r>
        <r>    7.5145    0.0000 </r>
        <r>    9.8274    0.0000 </r>
        <r>   12.7877    0.0000 </r>
        <r>   14.7163    0.0000 </r>
       </set>
       <set comment="kpoint 49">
        <r>  -10.1861    1.0000 </r>
        <r>   -3.1003    1.0000 </r>
        <r>   -1.2871    1.0000 </r>
        <r>    0.3205    1.0000 </r>
        <r>    8.0812    0.0000 </r>
        <r>   10.0820    0.0000 </r>
        <r>   12.7395    0.0000 </r>
        <r>   14.3478    0.0000 </r>
       </set>
       <set comment="kpoint 50">
        <r>  -10.3195    1.0000 </r>
        <r>   -3.0200    1.0000 </r>
        <r>   -1.3709    1.0000 </r>
        <r>    0.6623    1.0000 </r>
        <r>    8.7601    0.0000 </r>
        <r>    9.8287    0.0000 </r>
        <r>   12.2114    0.0000 </r>
        <r>   14.2932    0.0000 </r>
       </set>
       <set comment="kpoint 51">
        <r>  -10.1931    1.0000 </r>
        <r>   -3.2157    1.0000 </r>
        <r>   -0.2495    1.0000 </r>
        <r>   -0.1455    1.0000 </r>
        <r>    6.6260    0.0000 </r>
        <r>    9.3948    0.0000 </r>
        <r>   13.6228    0.0000 </r>
        <r>   15.0897    0.0000 </r>
       </set>
       <set comment="kpoint 52">
        <r>  -10.0957    1.0000 </r>
        <r>   -3.1563    1.0000 </r>
        <r>   -0.9614    1.0000 </r>
        <r>   -0.0463    1.0000 </r>
        <r>    7.2795    0.0000 </r>
        <r>    9.8556    0.0000 </r>
        <r>   13.5612    0.0000 </r>
        <r>   14.3310    0.0000 </r>
       </set>
       <set comment="kpoint 53">
        <r>  -10.5422    1.0000 </r>
        <r>   -2.8554    1.0000 </r>
        <r>   -0.7076    1.0000 </r>
        <r>    0.4710    1.0000 </r>
        <r>    8.4690    0.0000 </r>
        <r>    9.8737    0.0000 </r>
        <r>   11.8644    0.0000 </r>
        <r>   14.4747    0.0000 </r>
       </set>
       <set comment="kpoint 54">
        <r>  -10.2469    1.0000 </r>
        <r>   -3.0689    1.0000 </r>
        <r>   -1.0928    1.0000 </r>
        <r>    0.1363    1.0000 </r>
        <r>    8.8285    0.0000 </r>
        <r>    9.9268    0.0000 </r>
        <r>   12.0758    0.0000 </r>
        <r>   14.2157    0.0000 </r>
       </set>
       <set comment="kpoint 55">
        <r>  -10.1247    1.0000 </r>
        <r>   -3.0223    1.0000 </r>
        <r>   -0.8769    1.0000 </r>
        <r>   -0.4497    1.0000 </r>
        <r>    8.0822    0.0000 </r>
        <r>   10.1618    0.0000 </r>
        <r>   12.7327    0.0000 </r>
        <r>   13.9780    0.0000 </r>
       </set>
       <set comment="kpoint 56">
        <r>  -10.0832    1.0000 </r>
        <r>   -2.9516    1.0000 </r>
        <r>   -1.2398    1.0000 </r>
        <r>   -0.3946    1.0000 </r>
        <r>    8.6111    0.0000 </r>
        <r>   10.3373    0.0000 </r>
        <r>   12.4399    0.0000 </r>
        <r>   13.7000    0.0000 </r>
       </set>
      </set>
     </set>
    </array>
   </eigenvalues>
   <array>
    <dimension dim="1">ion</dimension>
    <dimension dim="2">band</dimension>
    <dimension dim="3">kpoint</dimension>
    <dimension dim="4">spin</dimension>
    <field>  s  </field>
    <field>  p  </field>
    <field>  d  </field>
    <set>
     <set comment="spin1">
      <set comment="kpoint 1">
       <set comment="band 1">
        <r>  0.3370  0.0000  0.0000 </r>
        <r>  0.4483  0.0000  0.0000 </r>
       </set>
       <set comment="band 2">
        <r>  0.0000  0.0625  0.1423 </r>
        <r>  0.0000  0.6197  0.0000 </r>
       </set>
       <set comment="band 3">
        <r>  0.0000  0.0625  0.1423 </r>
        <r>  0.0000  0.6197  0.0000 </r>
       </set>
       <set comment="band 4">
        <r>  0.0000  0.0625  0.1423 </r>
        <r>  0.0000  0.6197  0.0000 </r>
       </set>
       <set comment="band 5">
        <r>  0.2921  0.0000  0.0000 </r>
        <r>  0.3454  0.0000  0.0000 </r>
       </set>
       <set comment="band 6">
        <r>  0.0000  0.7389  0.0102 </r>
        <r>  0.0000  0.0048  0.0000 </r>
       </set>
       <set comment="band 7">
        <r>  0.0000  0.7389  0.0102 </r>
        <r>  0.0000  0.0048  0.0000 </r>
       </set>
       <set comment="band 8">
        <r>  0.0000  0.7389  0.0102 </r>
        <r>  0.0000  0.0048  0.0000 </r>
       </set>
      </set>
      <set comment="kpoint 2">
       <set comment="band 1">
        <r>  0.3261  0.0072  0.0010 </r>
        <r>  0.4523  0.0006  0.0000 </r>
       </set>
       <set comment="band 2">
        <r>  0.0919  0.0642  0.1108 </r>
        <r>  0.0886  0.4324  0.0000 </r>
       </set>
       <set comment="band 3">
        <r>  0.0000  0.0750  0.1361 </r>
        <r>  0.0000  0.6126  0.0000 </r>
       </set>
       <set comment="band 4">
        <r>  0.0000  0.0750  0.1361 </r>
        <r>  0.0000  0.6126  0.0000 </r>
       </set>
       <set comment="band 5">
        <r>  0.2084  0.0316  0.0161 </r>
        <r>  0.2492  0.1660  0.0000 </r>
       </set>
       <set comment="band 6">
        <r>  0.0561  0.6061  0.0169 </r>
        <r>  0.0001  0.0387  0.0000 </r>
       </set>
       <set comment="band 7">
        <r>  0.0000  0.7274  0.0150 </r>
        <r>  0.0000  0.0140  0.0000 </r>
       </set>
       <set comment="band 8">
        <r>  0.0000  0.7274  0.0150 </r>
        <r>  0.0000  0.0140  0.0000 </r>
       </set>
      </set>
      <set comment="kpoint 3">
       <set comment="band 1">
        <r>  0.2938  0.0274  0.0043 </r>
        <r>  0.4652  0.0022  0.0000 </r>
       </set>
       <set comment="band 2">
        <r>  0.1450  0.0997  0.0866 </r>
        <r>  0.1060  0.3404  0.0000 </r>
       </set>
       <set comment="band 3">
        <r>  0.0000  0.1053  0.1205 </r>
        <r>  0.0000  0.5961  0.0000 </r>
       </set>
       <set comment="band 4">
        <r>  0.0000  0.1053  0.1205 </r>
        <r>  0.0000  0.5961  0.0000 </r>
       </set>
       <set comment="band 5">
        <r>  0.1938  0.0750  0.0044 </r>
        <r>  0.2095  0.1916  0.0000 </r>
       </set>
       <set comment="band 6">
        <r>  0.1183  0.3844  0.0340 </r>
        <r>  0.0007  0.1299  0.0000 </r>
       </set>
       <set comment="band 7">
        <r>  0.0000  0.6851  0.0376 </r>
        <r>  0.0000  0.0324  0.0000 </r>
       </set>
       <set comment="band 8">
        <r>  0.0000  0.6851  0.0376 </r>
        <r>  0.0000  0.0324  0.0000 </r>
       </set>
      </set>
      <set comment="kpoint 4">
       <set comment="band 1">
        <r>  0.2419  0.0563  0.0108 </r>
        <r>  0.4897  0.0037  0.0000 </r>
       </set>
       <set comment="band 2">
        <r>  0.1962  0.1390  0.0571 </r>
        <r>  0.0885  0.2881  0.0000 </r>
       </set>
       <set comment="band 3">
        <r>  0.0000  0.1395  0.1021 </r>
        <r>  0.0000  0.5786  0.0000 </r>
       </set>
       <set comment="band 4">
        <r>  0.0000  0.1395  0.1021 </r>
        <r>  0.0000  0.5786  0.0000 </r>
       </set>
       <set comment="band 5">
        <r>  0.2358  0.1094  0.0009 </r>
        <r>  0.1900  0.1369  0.0000 </r>
       </set>
       <set comment="band 6">
        <r>  0.1098  0.2085  0.0530 </r>
        <r>  0.0014  0.2619  0.0000 </r>
       </set>
       <set comment="band 7">
        <r>  0.0000  0.6032  0.0889 </r>
        <r>  0.0000  0.0414  0.0000 </r>
       </set>
       <set comment="band 8">
        <r>  0.0000  0.6032  0.0889 </r>
        <r>  0.0000  0.0414  0.0000 </r>
       </set>
      </set>
      <set comment="kpoint 5">
       <set comment="band 1">
        <r>  0.1765  0.0868  0.0207 </r>
        <r>  0.5279  0.0034  0.0000 </r>
       </set>
       <set comment="band 2">
        <r>  0.2580  0.1635  0.0266 </r>
        <r>  0.0513  0.2568  0.0000 </r>
       </set>
       <set comment="band 3">
        <r>  0.0000  0.1668  0.0866 </r>
        <r>  0.0000  0.5656  0.0000 </r>
       </set>
       <set comment="band 4">
        <r>  0.0000  0.1668  0.0866 </r>
        <r>  0.0000  0.5656  0.0000 </r>
       </set>
       <set comment="band 5">
        <r>  0.3033  0.1116  0.0130 </r>
        <r>  0.1767  0.0664  0.0000 </r>
       </set>
       <set comment="band 6">
        <r>  0.0555  0.1101  0.0703 </r>
        <r>  0.0022  0.3800  0.0000 </r>
       </set>
       <set comment="band 7">
        <r>  0.0000  0.5236  0.1414 </r>
        <r>  0.0000  0.0388  0.0000 </r>
       </set>
       <set comment="band 8">
        <r>  0.0000  0.5236  0.1414 </r>
        <r>  0.0000  0.0388  0.0000 </r>
       </set>
      </set>
      <set comment="kpoint 6">
       <set comment="band 1">
        <r>  0.1204  0.1080  0.0306 </r>
        <r>  0.5671  0.0009  0.0000 </r>
       </set>
       <set comment="band 2">
        <r>  0.3118  0.1717  0.0050 </r>
        <r>  0.0119  0.2439  0.0000 </r>
       </set>
       <set comment="band 3">
        <r>  0.0000  0.1817  0.0780 </r>
        <r>  0.0000  0.5589  0.0000 </r>
       </set>
       <set comment="band 4">
        <r>  0.0000  0.1817  0.0780 </r>
        <r>  0.0000  0.5589  0.0000 </r>
       </set>
       <set comment="band 5">
        <r>  0.3464  0.0984  0.0245 </r>
        <r>  0.1698  0.0295  0.0000 </r>
       </set>
       <set comment="band 6">
        <r>  0.0168  0.0728  0.0850 </r>
        <r>  0.0025  0.4350  0.0000 </r>
       </set>
       <set comment="band 7">
        <r>  0.0000  0.4833  0.1681 </r>
        <r>  0.0000  0.0353  0.0000 </r>
       </set>
       <set comment="band 8">
        <r>  0.0000  0.4833  0.1681 </r>
        <r>  0.0000  0.0353  0.0000 </r>
       </set>
      </set>
      <set comment="kpoint 7">
       <set comment="band 1">
        <r>  0.3224  0.0097  0.0013 </r>
        <r>  0.4536  0.0008  0.0000 </r>
       </set>
       <set comment="band 2">
        <r>  0.1133  0.0403  0.1130 </r>
        <r>  0.1071  0.4123  0.0000 </r>
       </set>
       <set comment="band 3">
        <r>  0.0000  0.0957  0.1283 </r>
        <r>  0.0000  0.5964  0.0000 </r>
       </set>
       <set comment="band 4">
        <r>  0.0000  0.0957  0.1283 </r>
        <r>  0.0000  0.5964  0.0000 </r>
       </set>
       <set comment="band 5">
        <r>  0.1874  0.0324  0.0205 </r>
        <r>  0.2278  0.2096  0.0000 </r>
       </set>
       <set comment="band 6">
        <r>  0.0756  0.6281  0.0177 </r>
        <r>  0.0000  0.0068  0.0000 </r>
       </set>
       <set comment="band 7">
        <r>  0.0000  0.6927  0.0164 </r>
        <r>  0.0000  0.0384  0.0000 </r>
       </set>
       <set comment="band 8">
        <r>  0.0000  0.6927  0.0164 </r>
        <r>  0.0000  0.0384  0.0000 </r>
       </set>
      </set>
      <set comment="kpoint 8">
       <set comment="band 1">
        <r>  0.2970  0.0257  0.0038 </r>
        <r>  0.4635  0.0021  0.0000 </r>
       </set>
       <set comment="band 2">
        <r>  0.1486  0.0699  0.0966 </r>
        <r>  0.1162  0.3511  0.0000 </r>
       </set>
       <set comment="band 3">
        <r>  0.0000  0.1303  0.1121 </r>
        <r>  0.0000  0.5741  0.0000 </r>
       </set>
       <set comment="band 4">
        <r>  0.0088  0.1115  0.1165 </r>
        <r>  0.0050  0.5752  0.0000 </r>
       </set>
       <set comment="band 5">
        <r>  0.1651  0.0626  0.0115 </r>
        <r>  0.1955  0.2435  0.0000 </r>
       </set>
       <set comment="band 6">
        <r>  0.1388  0.4773  0.0347 </r>
        <r>  0.0001  0.0532  0.0000 </r>
       </set>
       <set comment="band 7">
        <r>  0.0002  0.6363  0.0310 </r>
        <r>  0.0012  0.0568  0.0000 </r>
       </set>
       <set comment="band 8">
        <r>  0.0000  0.6428  0.0302 </r>
        <r>  0.0000  0.0692  0.0000 </r>
       </set>
      </set>
      <set comment="kpoint 9">
       <set comment="band 1">
        <r>  0.2514  0.0519  0.0092 </r>
        <r>  0.4842  0.0037  0.0000 </r>
       </set>
       <set comment="band 2">
        <r>  0.1890  0.1161  0.0689 </r>
        <r>  0.1005  0.3016  0.0000 </r>
       </set>
       <set comment="band 3">
        <r>  0.0000  0.1645  0.0940 </r>
        <r>  0.0000  0.5553  0.0000 </r>
       </set>
       <set comment="band 4">
        <r>  0.0198  0.1338  0.1010 </r>
        <r>  0.0079  0.5511  0.0000 </r>
       </set>
       <set comment="band 5">
        <r>  0.1829  0.0985  0.0047 </r>
        <r>  0.1749  0.2155  0.0000 </r>
       </set>
       <set comment="band 6">
[...]
        <r>  0.0146  0.0931  0.0000 </r>
       </set>
       <set comment="band 8">
        <r>  0.0002  0.5634  0.0849 </r>
        <r>  0.0000  0.0959  0.0000 </r>
       </set>
      </set>
      <set comment="kpoint 39">
       <set comment="band 1">
        <r>  0.1486  0.1009  0.0244 </r>
        <r>  0.5418  0.0038  0.0000 </r>
       </set>
       <set comment="band 2">
        <r>  0.2795  0.1448  0.0283 </r>
        <r>  0.0526  0.2626  0.0000 </r>
       </set>
       <set comment="band 3">
        <r>  0.0583  0.2108  0.0583 </r>
        <r>  0.0123  0.4465  0.0000 </r>
       </set>
       <set comment="band 4">
        <r>  0.0054  0.1919  0.0754 </r>
        <r>  0.0017  0.5368  0.0000 </r>
       </set>
       <set comment="band 5">
        <r>  0.2231  0.1132  0.0220 </r>
        <r>  0.1300  0.1998  0.0000 </r>
       </set>
       <set comment="band 6">
        <r>  0.0909  0.1675  0.1387 </r>
        <r>  0.0007  0.2365  0.0000 </r>
       </set>
       <set comment="band 7">
        <r>  0.0523  0.2942  0.0807 </r>
        <r>  0.0172  0.1522  0.0000 </r>
       </set>
       <set comment="band 8">
        <r>  0.0001  0.4713  0.1339 </r>
        <r>  0.0001  0.1052  0.0000 </r>
       </set>
      </set>
      <set comment="kpoint 40">
       <set comment="band 1">
        <r>  0.0946  0.1207  0.0341 </r>
        <r>  0.5796  0.0014  0.0000 </r>
       </set>
       <set comment="band 2">
        <r>  0.3278  0.1583  0.0061 </r>
        <r>  0.0121  0.2518  0.0000 </r>
       </set>
       <set comment="band 3">
        <r>  0.0730  0.2027  0.0569 </r>
        <r>  0.0172  0.4360  0.0000 </r>
       </set>
       <set comment="band 4">
        <r>  0.0017  0.2159  0.0648 </r>
        <r>  0.0003  0.5253  0.0000 </r>
       </set>
       <set comment="band 5">
        <r>  0.2869  0.1040  0.0309 </r>
        <r>  0.1221  0.1577  0.0000 </r>
       </set>
       <set comment="band 6">
        <r>  0.0112  0.1518  0.1614 </r>
        <r>  0.0003  0.2488  0.0000 </r>
       </set>
       <set comment="band 7">
        <r>  0.0685  0.2632  0.0770 </r>
        <r>  0.0134  0.2372  0.0000 </r>
       </set>
       <set comment="band 8">
        <r>  0.0001  0.4195  0.1582 </r>
        <r>  0.0001  0.1122  0.0000 </r>
       </set>
      </set>
      <set comment="kpoint 41">
       <set comment="band 1">
        <r>  0.1931  0.0843  0.0160 </r>
        <r>  0.5116  0.0049  0.0000 </r>
       </set>
       <set comment="band 2">
        <r>  0.2677  0.0672  0.0680 </r>
        <r>  0.1025  0.2875  0.0000 </r>
       </set>
       <set comment="band 3">
        <r>  0.0218  0.2438  0.0538 </r>
        <r>  0.0003  0.4682  0.0000 </r>
       </set>
       <set comment="band 4">
        <r>  0.0088  0.2094  0.0702 </r>
        <r>  0.0031  0.5117  0.0000 </r>
       </set>
       <set comment="band 5">
        <r>  0.0629  0.1820  0.0362 </r>
        <r>  0.1181  0.2268  0.0000 </r>
       </set>
       <set comment="band 6">
        <r>  0.3100  0.2015  0.0799 </r>
        <r>  0.0030  0.1447  0.0000 </r>
       </set>
       <set comment="band 7">
        <r>  0.0000  0.2340  0.1504 </r>
        <r>  0.0219  0.1007  0.0000 </r>
       </set>
       <set comment="band 8">
        <r>  0.0000  0.4901  0.0732 </r>
        <r>  0.0000  0.1784  0.0000 </r>
       </set>
      </set>
      <set comment="kpoint 42">
       <set comment="band 1">
        <r>  0.1326  0.1115  0.0253 </r>
        <r>  0.5471  0.0044  0.0000 </r>
       </set>
       <set comment="band 2">
        <r>  0.3163  0.0924  0.0412 </r>
        <r>  0.0667  0.2724  0.0000 </r>
       </set>
       <set comment="band 3">
        <r>  0.0525  0.2488  0.0434 </r>
        <r>  0.0052  0.4243  0.0000 </r>
       </set>
       <set comment="band 4">
        <r>  0.0075  0.2373  0.0574 </r>
        <r>  0.0017  0.4917  0.0000 </r>
       </set>
       <set comment="band 5">
        <r>  0.0623  0.1916  0.0751 </r>
        <r>  0.0894  0.1947  0.0000 </r>
       </set>
       <set comment="band 6">
        <r>  0.3053  0.1032  0.0886 </r>
        <r>  0.0078  0.2454  0.0000 </r>
       </set>
       <set comment="band 7">
        <r>  0.0091  0.2316  0.1225 </r>
        <r>  0.0325  0.1160  0.0000 </r>
       </set>
       <set comment="band 8">
        <r>  0.0003  0.4018  0.1149 </r>
        <r>  0.0001  0.1993  0.0000 </r>
       </set>
      </set>
      <set comment="kpoint 43">
       <set comment="band 1">
        <r>  0.0748  0.1326  0.0358 </r>
        <r>  0.5866  0.0022  0.0000 </r>
       </set>
       <set comment="band 2">
        <r>  0.3612  0.1182  0.0141 </r>
        <r>  0.0223  0.2633  0.0000 </r>
       </set>
       <set comment="band 3">
        <r>  0.0825  0.2341  0.0432 </r>
        <r>  0.0127  0.3922  0.0000 </r>
       </set>
       <set comment="band 4">
        <r>  0.0029  0.2570  0.0489 </r>
        <r>  0.0002  0.4830  0.0000 </r>
       </set>
       <set comment="band 5">
        <r>  0.1085  0.1724  0.1082 </r>
        <r>  0.0672  0.1633  0.0000 </r>
       </set>
       <set comment="band 6">
        <r>  0.2173  0.0669  0.0943 </r>
        <r>  0.0174  0.3039  0.0000 </r>
       </set>
       <set comment="band 7">
        <r>  0.0482  0.2304  0.0902 </r>
        <r>  0.0315  0.1933  0.0000 </r>
       </set>
       <set comment="band 8">
        <r>  0.0006  0.3413  0.1429 </r>
        <r>  0.0007  0.2000  0.0000 </r>
       </set>
      </set>
      <set comment="kpoint 44">
       <set comment="band 1">
        <r>  0.0568  0.1374  0.0398 </r>
        <r>  0.6008  0.0011  0.0000 </r>
       </set>
       <set comment="band 2">
        <r>  0.3739  0.1297  0.0044 </r>
        <r>  0.0063  0.2609  0.0000 </r>
       </set>
       <set comment="band 3">
        <r>  0.0912  0.2339  0.0419 </r>
        <r>  0.0139  0.3770  0.0000 </r>
       </set>
       <set comment="band 4">
        <r>  0.0033  0.2509  0.0508 </r>
        <r>  0.0004  0.4893  0.0000 </r>
       </set>
       <set comment="band 5">
        <r>  0.1880  0.1544  0.1096 </r>
        <r>  0.0621  0.1463  0.0000 </r>
       </set>
       <set comment="band 6">
        <r>  0.1078  0.0813  0.1045 </r>
        <r>  0.0246  0.3116  0.0000 </r>
       </set>
       <set comment="band 7">
        <r>  0.0741  0.2154  0.0700 </r>
        <r>  0.0254  0.2607  0.0000 </r>
       </set>
       <set comment="band 8">
        <r>  0.0001  0.3336  0.1514 </r>
        <r>  0.0008  0.1886  0.0000 </r>
       </set>
      </set>
      <set comment="kpoint 45">
       <set comment="band 1">
        <r>  0.0955  0.1232  0.0330 </r>
        <r>  0.5741  0.0030  0.0000 </r>
       </set>
       <set comment="band 2">
        <r>  0.3383  0.1237  0.0188 </r>
        <r>  0.0371  0.2637  0.0000 </r>
       </set>
       <set comment="band 3">
        <r>  0.0804  0.2477  0.0390 </r>
        <r>  0.0071  0.3815  0.0000 </r>
       </set>
       <set comment="band 4">
        <r>  0.0053  0.2250  0.0616 </r>
        <r>  0.0011  0.5086  0.0000 </r>
       </set>
       <set comment="band 5">
        <r>  0.2345  0.0991  0.0242 </r>
        <r>  0.0955  0.2689  0.0000 </r>
       </set>
       <set comment="band 6">
        <r>  0.0559  0.1604  0.1782 </r>
        <r>  0.0045  0.1920  0.0000 </r>
       </set>
       <set comment="band 7">
        <r>  0.0770  0.2211  0.0626 </r>
        <r>  0.0259  0.2132  0.0000 </r>
       </set>
       <set comment="band 8">
        <r>  0.0000  0.3900  0.1404 </r>
        <r>  0.0001  0.1673  0.0000 </r>
       </set>
      </set>
      <set comment="kpoint 46">
       <set comment="band 1">
        <r>  0.1576  0.0984  0.0225 </r>
        <r>  0.5343  0.0046  0.0000 </r>
       </set>
       <set comment="band 2">
        <r>  0.2808  0.1106  0.0435 </r>
        <r>  0.0781  0.2721  0.0000 </r>
       </set>
       <set comment="band 3">
        <r>  0.0601  0.2510  0.0429 </r>
        <r>  0.0007  0.4114  0.0000 </r>
       </set>
       <set comment="band 4">
        <r>  0.0059  0.1899  0.0770 </r>
        <r>  0.0018  0.5355  0.0000 </r>
       </set>
       <set comment="band 5">
        <r>  0.1567  0.1082  0.0163 </r>
        <r>  0.1180  0.2880  0.0000 </r>
       </set>
       <set comment="band 6">
        <r>  0.1696  0.1963  0.1503 </r>
        <r>  0.0033  0.1700  0.0000 </r>
       </set>
       <set comment="band 7">
        <r>  0.0391  0.2529  0.0693 </r>
        <r>  0.0230  0.1367  0.0000 </r>
       </set>
       <set comment="band 8">
        <r>  0.0000  0.4872  0.1124 </r>
        <r>  0.0000  0.1326  0.0000 </r>
       </set>
      </set>
      <set comment="kpoint 47">
       <set comment="band 1">
        <r>  0.0985  0.1302  0.0285 </r>
        <r>  0.5637  0.0041  0.0000 </r>
       </set>
       <set comment="band 2">
        <r>  0.3832  0.0378  0.0465 </r>
        <r>  0.0600  0.2751  0.0000 </r>
       </set>
       <set comment="band 3">
        <r>  0.0229  0.2849  0.0314 </r>
        <r>  0.0006  0.4371  0.0000 </r>
       </set>
       <set comment="band 4">
        <r>  0.0031  0.2809  0.0388 </r>
        <r>  0.0004  0.4601  0.0000 </r>
       </set>
       <set comment="band 5">
        <r>  0.0027  0.2683  0.1191 </r>
        <r>  0.0731  0.1006  0.0000 </r>
       </set>
       <set comment="band 6">
        <r>  0.3871  0.0403  0.0818 </r>
        <r>  0.0059  0.2231  0.0000 </r>
       </set>
       <set comment="band 7">
        <r>  0.0071  0.1225  0.1515 </r>
        <r>  0.0309  0.1939  0.0000 </r>
       </set>
       <set comment="band 8">
        <r>  0.0015  0.3477  0.1028 </r>
        <r>  0.0025  0.2644  0.0000 </r>
       </set>
      </set>
      <set comment="kpoint 48">
       <set comment="band 1">
        <r>  0.0449  0.1498  0.0381 </r>
        <r>  0.5999  0.0020  0.0000 </r>
       </set>
       <set comment="band 2">
        <r>  0.4414  0.0416  0.0251 </r>
        <r>  0.0250  0.2727  0.0000 </r>
       </set>
       <set comment="band 3">
        <r>  0.0369  0.2957  0.0278 </r>
        <r>  0.0019  0.3878  0.0000 </r>
       </set>
       <set comment="band 4">
        <r>  0.0031  0.2939  0.0327 </r>
        <r>  0.0001  0.4477  0.0000 </r>
       </set>
       <set comment="band 5">
        <r>  0.0158  0.2246  0.1540 </r>
        <r>  0.0533  0.1187  0.0000 </r>
       </set>
       <set comment="band 6">
        <r>  0.3615  0.0143  0.0687 </r>
        <r>  0.0050  0.3039  0.0000 </r>
       </set>
       <set comment="band 7">
        <r>  0.0102  0.1687  0.1236 </r>
        <r>  0.0382  0.1996  0.0000 </r>
       </set>
       <set comment="band 8">
        <r>  0.0034  0.2734  0.1249 </r>
        <r>  0.0105  0.2603  0.0000 </r>
       </set>
      </set>
      <set comment="kpoint 49">
       <set comment="band 1">
        <r>  0.0210  0.1548  0.0441 </r>
        <r>  0.6196  0.0005  0.0000 </r>
       </set>
       <set comment="band 2">
        <r>  0.4785  0.0491  0.0083 </r>
        <r>  0.0043  0.2727  0.0000 </r>
       </set>
       <set comment="band 3">
        <r>  0.0321  0.3060  0.0294 </r>
        <r>  0.0029  0.3517  0.0000 </r>
       </set>
       <set comment="band 4">
        <r>  0.0050  0.2844  0.0360 </r>
        <r>  0.0006  0.4555  0.0000 </r>
       </set>
       <set comment="band 5">
        <r>  0.0489  0.1858  0.1736 </r>
        <r>  0.0366  0.1286  0.0000 </r>
       </set>
       <set comment="band 6">
        <r>  0.2978  0.0118  0.0466 </r>
        <r>  0.0130  0.3820  0.0000 </r>
       </set>
       <set comment="band 7">
        <r>  0.0339  0.1958  0.0986 </r>
        <r>  0.0394  0.2422  0.0000 </r>
       </set>
       <set comment="band 8">
        <r>  0.0012  0.2490  0.1455 </r>
        <r>  0.0155  0.2114  0.0000 </r>
       </set>
      </set>
      <set comment="kpoint 50">
       <set comment="band 1">
        <r>  0.0441  0.1437  0.0414 </r>
        <r>  0.6066  0.0014  0.0000 </r>
       </set>
       <set comment="band 2">
        <r>  0.4370  0.0774  0.0080 </r>
        <r>  0.0166  0.2688  0.0000 </r>
       </set>
       <set comment="band 3">
        <r>  0.0477  0.2919  0.0317 </r>
        <r>  0.0010  0.3495  0.0000 </r>
       </set>
       <set comment="band 4">
        <r>  0.0057  0.2595  0.0469 </r>
        <r>  0.0010  0.4772  0.0000 </r>
       </set>
       <set comment="band 5">
        <r>  0.0831  0.1704  0.1774 </r>
        <r>  0.0251  0.1352  0.0000 </r>
       </set>
       <set comment="band 6">
        <r>  0.2250  0.0440  0.0357 </r>
        <r>  0.0414  0.3790  0.0000 </r>
       </set>
       <set comment="band 7">
        <r>  0.0629  0.2063  0.0756 </r>
        <r>  0.0374  0.2375  0.0000 </r>
       </set>
       <set comment="band 8">
        <r>  0.0005  0.2947  0.1466 </r>
        <r>  0.0041  0.2121  0.0000 </r>
       </set>
      </set>
      <set comment="kpoint 51">
       <set comment="band 1">
        <r>  0.0141  0.1668  0.0405 </r>
        <r>  0.6157  0.0008  0.0000 </r>
       </set>
       <set comment="band 2">
        <r>  0.4887  0.0075  0.0275 </r>
        <r>  0.0093  0.2738  0.0000 </r>
       </set>
       <set comment="band 3">
        <r>  0.0132  0.3120  0.0202 </r>
        <r>  0.0008  0.4231  0.0000 </r>
       </set>
       <set comment="band 4">
        <r>  0.0010  0.3170  0.0220 </r>
        <r>  0.0003  0.4291  0.0000 </r>
       </set>
       <set comment="band 5">
        <r>  0.0000  0.2620  0.1588 </r>
        <r>  0.0623  0.0648  0.0000 </r>
       </set>
       <set comment="band 6">
        <r>  0.3861  0.0065  0.1052 </r>
        <r>  0.0007  0.2065  0.0000 </r>
       </set>
       <set comment="band 7">
        <r>  0.0239  0.0327  0.1188 </r>
        <r>  0.0095  0.3379  0.0000 </r>
       </set>
       <set comment="band 8">
        <r>  0.0015  0.3474  0.0975 </r>
        <r>  0.0235  0.2543  0.0000 </r>
       </set>
      </set>
      <set comment="kpoint 52">
       <set comment="band 1">
        <r>  0.0018  0.1673  0.0446 </r>
        <r>  0.6273  0.0000  0.0000 </r>
       </set>
       <set comment="band 2">
        <r>  0.5183  0.0049  0.0178 </r>
        <r>  0.0002  0.2763  0.0000 </r>
       </set>
       <set comment="band 3">
        <r>  0.0064  0.3335  0.0208 </r>
        <r>  0.0002  0.3712  0.0000 </r>
       </set>
       <set comment="band 4">
        <r>  0.0058  0.3070  0.0252 </r>
        <r>  0.0007  0.4340  0.0000 </r>
       </set>
       <set comment="band 5">
        <r>  0.0129  0.2184  0.1728 </r>
        <r>  0.0478  0.1074  0.0000 </r>
       </set>
       <set comment="band 6">
        <r>  0.3613  0.0034  0.0766 </r>
        <r>  0.0005  0.2968  0.0000 </r>
       </set>
       <set comment="band 7">
        <r>  0.0224  0.0471  0.1244 </r>
        <r>  0.0089  0.3406  0.0000 </r>
       </set>
       <set comment="band 8">
        <r>  0.0000  0.3468  0.1087 </r>
        <r>  0.0480  0.1648  0.0000 </r>
       </set>
      </set>
      <set comment="kpoint 53">
       <set comment="band 1">
        <r>  0.0753  0.1345  0.0349 </r>
        <r>  0.5833  0.0030  0.0000 </r>
       </set>
       <set comment="band 2">
        <r>  0.3893  0.0750  0.0254 </r>
        <r>  0.0403  0.2702  0.0000 </r>
       </set>
       <set comment="band 3">
        <r>  0.0562  0.2784  0.0309 </r>
        <r>  0.0010  0.3842  0.0000 </r>
       </set>
       <set comment="band 4">
        <r>  0.0088  0.2659  0.0468 </r>
        <r>  0.0013  0.4564  0.0000 </r>
       </set>
       <set comment="band 5">
        <r>  0.0139  0.1693  0.1379 </r>
        <r>  0.0452  0.2234  0.0000 </r>
       </set>
       <set comment="band 6">
        <r>  0.3457  0.0528  0.0646 </r>
        <r>  0.0228  0.3007  0.0000 </r>
       </set>
       <set comment="band 7">
        <r>  0.0127  0.2585  0.0973 </r>
        <r>  0.0468  0.1071  0.0000 </r>
       </set>
       <set comment="band 8">
        <r>  0.0020  0.2661  0.1417 </r>
        <r>  0.0033  0.2569  0.0000 </r>
       </set>
      </set>
      <set comment="kpoint 54">
       <set comment="band 1">
        <r>  0.0320  0.1495  0.0429 </r>
        <r>  0.6132  0.0011  0.0000 </r>
       </set>
       <set comment="band 2">
        <r>  0.4478  0.0694  0.0083 </r>
        <r>  0.0101  0.2713  0.0000 </r>
       </set>
       <set comment="band 3">
        <r>  0.0560  0.2796  0.0330 </r>
        <r>  0.0048  0.3623  0.0000 </r>
       </set>
       <set comment="band 4">
        <r>  0.0060  0.2901  0.0378 </r>
        <r>  0.0004  0.4335  0.0000 </r>
       </set>
       <set comment="band 5">
        <r>  0.0093  0.1205  0.1982 </r>
        <r>  0.0065  0.2441  0.0000 </r>
       </set>
       <set comment="band 6">
        <r>  0.3169  0.0625  0.0275 </r>
        <r>  0.0433  0.3187  0.0000 </r>
       </set>
       <set comment="band 7">
        <r>  0.0443  0.2786  0.0754 </r>
        <r>  0.0534  0.1517  0.0000 </r>
       </set>
       <set comment="band 8">
        <r>  0.0021  0.1810  0.1597 </r>
        <r>  0.0101  0.2509  0.0000 </r>
       </set>
      </set>
      <set comment="kpoint 55">
       <set comment="band 1">
        <r>  0.0100  0.1613  0.0448 </r>
        <r>  0.6241  0.0005  0.0000 </r>
       </set>
       <set comment="band 2">
        <r>  0.5102  0.0157  0.0139 </r>
        <r>  0.0057  0.2773  0.0000 </r>
       </set>
       <set comment="band 3">
        <r>  0.0233  0.3050  0.0292 </r>
        <r>  0.0008  0.3791  0.0000 </r>
       </set>
       <set comment="band 4">
        <r>  0.0003  0.3286  0.0241 </r>
        <r>  0.0000  0.3943  0.0000 </r>
       </set>
       <set comment="band 5">
        <r>  0.0001  0.1658  0.1859 </r>
        <r>  0.0278  0.1940  0.0000 </r>
       </set>
       <set comment="band 6">
        <r>  0.3739  0.0052  0.0459 </r>
        <r>  0.0029  0.3544  0.0000 </r>
       </set>
       <set comment="band 7">
        <r>  0.0007  0.2841  0.1067 </r>
        <r>  0.0639  0.1267  0.0000 </r>
       </set>
       <set comment="band 8">
        <r>  0.0073  0.1466  0.1429 </r>
        <r>  0.0205  0.2600  0.0000 </r>
       </set>
      </set>
      <set comment="kpoint 56">
       <set comment="band 1">
        <r>  0.0053  0.1607  0.0468 </r>
        <r>  0.6293  0.0002  0.0000 </r>
       </set>
       <set comment="band 2">
        <r>  0.5372  0.0109  0.0061 </r>
        <r>  0.0015  0.2787  0.0000 </r>
       </set>
       <set comment="band 3">
        <r>  0.0015  0.3231  0.0316 </r>
        <r>  0.0002  0.3578  0.0000 </r>
       </set>
       <set comment="band 4">
        <r>  0.0061  0.3186  0.0269 </r>
        <r>  0.0005  0.3977  0.0000 </r>
       </set>
       <set comment="band 5">
        <r>  0.0069  0.1122  0.2061 </r>
        <r>  0.0059  0.2472  0.0000 </r>
       </set>
       <set comment="band 6">
        <r>  0.3516  0.0162  0.0228 </r>
        <r>  0.0108  0.3931  0.0000 </r>
       </set>
       <set comment="band 7">
        <r>  0.0169  0.3747  0.0749 </r>
        <r>  0.0873  0.0896  0.0000 </r>
       </set>
       <set comment="band 8">
        <r>  0.0000  0.0836  0.1756 </r>
        <r>  0.0143  0.2325  0.0000 </r>
       </set>
      </set>
     </set>
    </set>
   </array>
  </projected>
 </calculation>
 <structure name="finalpos" >
  <crystal>
   <varray name="basis" >
    <v>       0.00000000       2.29386856       2.29386856 </v>
    <v>       2.29386856       0.00000000       2.29386856 </v>
    <v>       2.29386856       2.29386856       0.00000000 </v>
   </varray>
   <i name="volume">     24.13990646 </i>
   <varray name="rec_basis" >
    <v>      -0.21797238       0.21797238       0.21797238 </v>
    <v>       0.21797238      -0.21797238       0.21797238 </v>
    <v>       0.21797238       0.21797238      -0.21797238 </v>
   </varray>
  </crystal>
  <varray name="positions" >
   <v>       0.00000000       0.00000000       0.00000000 </v>
   <v>       0.25000000       0.25000000       0.25000000 </v>
  </varray>
 </structure>
</modeling>
