GaN                                     
           1
     0.000000    2.293869    2.293869
     2.293869    0.000000    2.293869
     2.293869    2.293869    0.000000
   Al   N 
   1   1
Direct configuration=     1
   0.00000000  0.00000000  0.00000000
   0.25000000  0.25000000  0.25000000
