   2   2   1   0
  0.2086038E+02  0.3893042E-09  0.3893042E-09  0.3893042E-09  0.5000000E-15
  1.000000000000000E-004
  CAR 
 AlP                                     
     15.70991258     -8.09167002   11      4.99920041      1.00000000
     -8.092  0.0000E+00  0.0000E+00
     -5.712  0.1383E-03  0.4966E-02
     -3.331  0.0000E+00  0.2000E-01
     -0.951  0.7167E-04  0.2017E-01
      1.429  0.2766E-03  0.4250E-01
      3.809  0.4611E-03  0.7772E-01
      6.189  0.0000E+00  0.8016E-01
      8.569  0.5533E-03  0.1035E+00
     10.950  0.4149E-03  0.1391E+00
     13.330  0.0000E+00  0.1584E+00
     15.710  0.0000E+00  0.1600E+00
     15.70991258     -8.09167002   11      4.99920041      1.00000000
     -8.092  0.0000E+00  0.0000E+00  0.0000E+00
     -5.712  0.7540E-03  0.1811E-03  0.0000E+00
     -3.331  0.0000E+00  0.0000E+00  0.0000E+00
     -0.951  0.8871E-03  0.2320E-03  0.0000E+00
      1.429  0.5949E-03  0.1940E-02  0.0000E+00
      3.809  0.3003E-03  0.2749E-02  0.0000E+00
      6.189  0.0000E+00  0.0000E+00  0.0000E+00
      8.569  0.2389E-02  0.8136E-03  0.0000E+00
     10.950  0.8039E-03  0.5663E-02  0.0000E+00
     13.330  0.0000E+00  0.0000E+00  0.0000E+00
     15.710  0.0000E+00  0.0000E+00  0.0000E+00
     15.70991258     -8.09167002   11      4.99920041      1.00000000
     -8.092  0.0000E+00  0.0000E+00  0.0000E+00
     -5.712  0.5829E-02  0.6799E-04  0.0000E+00
     -3.331  0.0000E+00  0.0000E+00  0.0000E+00
     -0.951  0.8336E-04  0.1232E-02  0.0000E+00
      1.429  0.5246E-04  0.6650E-02  0.0000E+00
      3.809  0.2534E-03  0.1658E-01  0.0000E+00
      6.189  0.0000E+00  0.0000E+00  0.0000E+00
      8.569  0.1097E-02  0.6819E-02  0.0000E+00
     10.950  0.1343E-02  0.4219E-02  0.0000E+00
     13.330  0.0000E+00  0.0000E+00  0.0000E+00
     15.710  0.0000E+00  0.0000E+00  0.0000E+00
