    2    2  100    1
  0.2086038E+02  0.3893042E-09  0.3893042E-09  0.3893042E-09  0.5000000E-15
  1.000000000000000E-004
  CAR 
 AlP                                     
      8     35      8
 
  0.0000000E+00  0.0000000E+00  0.0000000E+00  0.1371742E-02
    1       -7.009780   1.000000
    2        4.354190   1.000000
    3        4.354190   1.000000
    4        4.354190   1.000000
    5        7.447528   0.000000
    6        8.880893   0.000000
    7        8.880893   0.000000
    8        8.880893   0.000000
 
  0.1111111E+00 -0.5522439E-17 -0.3529263E-17  0.1097394E-01
    1       -6.877110   1.000000
    2        3.342736   1.000000
    3        4.237098   1.000000
    4        4.237098   1.000000
    5        7.905590   0.000000
    6        9.107747   0.000000
    7        9.107747   0.000000
    8        9.206690   0.000000
 
  0.2222222E+00  0.1195279E-16 -0.1095483E-16  0.1097394E-01
    1       -6.498231   1.000000
    2        1.642229   1.000000
    3        3.985539   1.000000
    4        3.985539   1.000000
    5        7.680593   0.000000
    6        9.444620   0.000000
    7        9.444620   0.000000
    8       10.715088   0.000000
 
  0.3333333E+00 -0.1871344E-16 -0.1538056E-16  0.1097394E-01
    1       -5.952699   1.000000
    2        0.091070   1.000000
    3        3.752881   1.000000
    4        3.752881   1.000000
    5        7.312407   0.000000
    6        9.380487   0.000000
    7        9.380487   0.000000
    8       12.154792   0.000000
 
  0.4444444E+00  0.2390558E-16 -0.2190967E-16  0.1097394E-01
    1       -5.471546   1.000000
    2       -0.916859   1.000000
    3        3.622323   1.000000
    4        3.622323   1.000000
    5        7.103080   0.000000
    6        9.195659   0.000000
    7        9.195659   0.000000
    8       12.550049   0.000000
 
  0.1111111E+00  0.1111111E+00 -0.3521989E-17  0.8230453E-02
    1       -6.832654   1.000000
    2        3.420744   1.000000
    3        3.979068   1.000000
    4        3.979068   1.000000
    5        8.360791   0.000000
    6        8.422824   0.000000
    7        9.500556   0.000000
    8        9.500556   0.000000
 
  0.2222222E+00  0.1111111E+00 -0.5608760E-17  0.3292181E-01
    1       -6.534541   1.000000
    2        2.112720   1.000000
    3        3.657698   1.000000
    4        3.753470   1.000000
    5        8.134715   0.000000
    6        8.887952   0.000000
    7       10.039260   0.000000
    8       10.119649   0.000000
 
  0.3333333E+00  0.1111111E+00 -0.9956878E-17  0.3292181E-01
    1       -6.037264   1.000000
    2        0.589113   1.000000
    3        3.402466   1.000000
    4        3.429974   1.000000
    5        7.871990   0.000000
    6        9.182978   0.000000
    7       10.108507   0.000000
    8       10.560599   0.000000
 
  0.4444444E+00  0.1111111E+00 -0.6194059E-17  0.3292181E-01
    1       -5.505881   1.000000
    2       -0.589803   1.000000
    3        3.061243   1.000000
    4        3.363406   1.000000
    5        7.681868   0.000000
    6        9.018406   0.000000
    7        9.812512   0.000000
    8       11.894694   0.000000
 
 -0.4444444E+00  0.1111111E+00 -0.3852862E-17  0.3292181E-01
    1       -5.314293   1.000000
    2       -0.946626   1.000000
    3        2.851843   1.000000
    4        3.466843   1.000000
    5        7.676924   0.000000
    6        9.006722   0.000000
    7        9.583855   0.000000
    8       12.766196   0.000000
 
 -0.3333333E+00  0.1111111E+00 -0.3520684E-17  0.3292181E-01
    1       -5.670850   1.000000
    2       -0.255298   1.000000
    3        2.833301   1.000000
    4        3.709068   1.000000
    5        7.860925   0.000000
    6        9.246963   0.000000
    7        9.550457   0.000000
    8       12.055773   0.000000
 
 -0.2222222E+00  0.1111111E+00  0.2500733E-17  0.3292181E-01
    1       -6.221041   1.000000
    2        1.072438   1.000000
    3        3.044117   1.000000
    4        4.015367   1.000000
    5        8.190039   0.000000
    6        9.462392   0.000000
    7        9.531490   0.000000
    8       10.795018   0.000000
 
 -0.1111111E+00  0.1111111E+00 -0.1924996E-17  0.1646091E-01
    1       -6.661620   1.000000
    2        2.486400   1.000000
    3        3.558939   1.000000
    4        4.247410   1.000000
    5        8.385258   0.000000
    6        8.962368   0.000000
    7        9.218062   0.000000
    8       10.143326   0.000000
 
  0.2222222E+00  0.2222222E+00 -0.7043979E-17  0.8230453E-02
    1       -6.323473   1.000000
    2        1.867558   1.000000
    3        3.269516   1.000000
    4        3.269516   1.000000
    5        7.447376   0.000000
    6        8.690219   0.000000
    7       10.926853   0.000000
    8       10.926853   0.000000
 
  0.3333333E+00  0.2222222E+00 -0.1108403E-16  0.3292181E-01
    1       -5.902606   1.000000
    2        0.849362   1.000000
    3        2.808733   1.000000
    4        2.997978   1.000000
    5        7.326575   0.000000
    6        8.512878   0.000000
    7       10.898279   0.000000
    8       11.401164   0.000000
 
  0.4444444E+00  0.2222222E+00 -0.1418249E-16  0.3292181E-01
    1       -5.392380   1.000000
    2       -0.181319   1.000000
    3        2.191772   1.000000
    4        2.917580   1.000000
    5        7.307447   0.000000
    6        9.393896   0.000000
    7       10.718010   0.000000
    8       11.186500   0.000000
 
 -0.4444444E+00  0.2222222E+00  0.1575906E-16  0.3292181E-01
    1       -5.082536   1.000000
    2       -0.705715   1.000000
    3        1.724935   1.000000
    4        3.042490   1.000000
    5        7.429070   0.000000
    6       10.015205   0.000000
    7       10.824311   0.000000
    8       11.568834   0.000000
 
 -0.3333333E+00  0.2222222E+00 -0.8078478E-17  0.3292181E-01
    1       -5.268907   1.000000
    2       -0.381733   1.000000
    3        1.577710   1.000000
    4        3.342400   1.000000
    5        7.821352   0.000000
    6       10.084018   0.000000
    7       10.558722   0.000000
    8       11.827558   0.000000
 
 -0.2222222E+00  0.2222222E+00  0.1345844E-16  0.1646091E-01
    1       -5.758701   1.000000
    2        0.416846   1.000000
    3        1.966372   1.000000
    4        3.727862   1.000000
    5        8.358599   0.000000
    6        9.987929   0.000000
    7       10.163231   0.000000
    8       10.600266   0.000000
 
  0.3333333E+00  0.3333333E+00 -0.1056597E-16  0.8230453E-02
    1       -5.574261   1.000000
    2        0.377996   1.000000
    3        2.669725   1.000000
    4        2.669726   1.000000
    5        6.593937   0.000000
    6        7.545621   0.000000
    7       12.690442   0.000000
    8       12.690442   0.000000
 
  0.4444444E+00  0.3333333E+00 -0.1405999E-16  0.3292181E-01
    1       -5.150363   1.000000
    2       -0.271461   1.000000
    3        2.096466   1.000000
    4        2.537992   1.000000
    5        6.585080   0.000000
    6        7.667283   0.000000
    7       12.760296   0.000000
    8       12.982409   0.000000
 
 -0.4444444E+00  0.3333333E+00 -0.1000347E-16  0.3292181E-01
    1       -4.850779   1.000000
    2       -0.589207   1.000000
    3        1.283628   1.000000
    4        2.628264   1.000000
    5        6.770807   0.000000
    6        9.017465   0.000000
    7       12.518614   0.000000
    8       12.581506   0.000000
 
 -0.3333333E+00  0.3333333E+00  0.1808428E-16  0.1646091E-01
    1       -4.913190   1.000000
    2       -0.472135   1.000000
    3        0.928232   1.000000
    4        2.921778   1.000000
    5        7.193203   0.000000
    6       10.682375   0.000000
    7       11.855202   0.000000
    8       12.039108   0.000000
 
  0.4444444E+00  0.4444444E+00 -0.1408796E-16  0.8230453E-02
    1       -4.876400   1.000000
    2       -0.699184   1.000000
    3        2.344384   1.000000
    4        2.344384   1.000000
    5        6.056907   0.000000
    6        6.905531   0.000000
    7       14.583617   0.000000
    8       14.583617   0.000000
 
 -0.4444444E+00  0.4444444E+00  0.2691687E-16  0.1646091E-01
    1       -4.746395   1.000000
    2       -0.803841   1.000000
    3        1.844800   1.000000
    4        2.376553   1.000000
    5        6.294406   0.000000
    6        7.392011   0.000000
    7       14.340355   0.000000
    8       14.628022   0.000000
 
  0.3333333E+00  0.2222222E+00  0.1111111E+00  0.3292181E-01
    1       -6.173632   1.000000
    2        1.278212   1.000000
    3        2.791296   1.000000
    4        3.644410   1.000000
    5        8.219531   0.000000
    6        9.043141   0.000000
    7        9.885120   0.000000
    8       10.678538   0.000000
 
  0.4444444E+00  0.2222222E+00  0.1111111E+00  0.6584362E-01
    1       -5.660758   1.000000
    2        0.173978   1.000000
    3        2.257302   1.000000
    4        3.335163   1.000000
    5        8.270326   0.000000
    6        9.152966   0.000000
    7       10.102636   0.000000
    8       10.994475   0.000000
 
 -0.4444444E+00  0.2222222E+00  0.1111111E+00  0.6584362E-01
    1       -5.218829   1.000000
    2       -0.659705   1.000000
    3        2.063758   1.000000
    4        3.087013   1.000000
    5        8.215426   0.000000
    6        8.830772   0.000000
    7       10.774143   0.000000
    8       11.735359   0.000000
 
  0.4444444E+00  0.3333333E+00  0.1111111E+00  0.3292181E-01
    1       -5.469807   1.000000
    2        0.181488   1.000000
    3        2.170709   1.000000
    4        2.718367   1.000000
    5        7.415909   0.000000
    6        8.313695   0.000000
    7       10.851565   0.000000
    8       12.599010   0.000000
 
 -0.4444444E+00  0.3333333E+00  0.1111111E+00  0.6584362E-01
    1       -5.041003   1.000000
    2       -0.400341   1.000000
    3        1.566626   1.000000
    4        2.473491   1.000000
    5        7.655653   0.000000
    6        9.258730   0.000000
    7       10.510704   0.000000
    8       12.808895   0.000000
 
 -0.3333333E+00  0.3333333E+00  0.1111111E+00  0.6584362E-01
    1       -4.912577   1.000000
    2       -0.538138   1.000000
    3        1.195045   1.000000
    4        2.568033   1.000000
    5        7.928142   0.000000
    6        9.831847   0.000000
    7       11.176533   0.000000
    8       11.993302   0.000000
 
 -0.2222222E+00  0.3333333E+00  0.1111111E+00  0.3292181E-01
    1       -5.204424   1.000000
    2       -0.205283   1.000000
    3        1.363911   1.000000
    4        2.924265   1.000000
    5        8.372063   0.000000
    6        9.600868   0.000000
    7       10.143513   0.000000
    8       12.240603   0.000000
 
 -0.4444444E+00  0.4444444E+00  0.1111111E+00  0.3292181E-01
    1       -4.841203   1.000000
    2       -0.615633   1.000000
    3        1.880717   1.000000
    4        2.083940   1.000000
    5        6.904776   0.000000
    6        7.778854   0.000000
    7       12.487416   0.000000
    8       14.274507   0.000000
 
 -0.3333333E+00  0.4444444E+00  0.1111111E+00  0.3292181E-01
    1       -4.741525   1.000000
    2       -0.597826   1.000000
    3        1.219775   1.000000
    4        2.157896   1.000000
    5        7.400338   0.000000
    6        9.082700   0.000000
    7       11.933200   0.000000
    8       12.309289   0.000000
 
 -0.3333333E+00  0.4444444E+00  0.2222222E+00  0.3292181E-01
    1       -4.774213   1.000000
    2       -0.486207   1.000000
    3        1.230223   1.000000
    4        1.889937   1.000000
    5        8.518099   0.000000
    6        9.759725   0.000000
    7       10.184491   0.000000
    8       11.770671   0.000000
