       N       E                     dE             d eps       ncg     rms          rms(c)
DAV:   1     0.130943511435E+02    0.13094E+02   -0.31945E+03   560   0.751E+02
DAV:   2    -0.101874872789E+02   -0.23282E+02   -0.22657E+02   808   0.912E+01
DAV:   3    -0.107160588168E+02   -0.52857E+00   -0.52857E+00   696   0.186E+01
DAV:   4    -0.107191392102E+02   -0.30804E-02   -0.30804E-02   936   0.159E+00
DAV:   5    -0.107191420544E+02   -0.28442E-05   -0.28442E-05   736   0.479E-02
DAV:   6    -0.107191420960E+02   -0.41584E-07   -0.41584E-07   968   0.457E-03
DAV:   7    -0.107191420960E+02   -0.15291E-10   -0.15259E-10   784   0.962E-05
DAV:   8    -0.107191420960E+02   -0.56843E-13   -0.42248E-13   808   0.633E-06    0.441E+00
DAV:   9    -0.104998234352E+02    0.21932E+00   -0.28465E-01   592   0.246E+00    0.355E+00
DAV:  10    -0.103815117869E+02    0.11831E+00   -0.71121E-01   640   0.398E+00    0.211E+00
DAV:  11    -0.103775440815E+02    0.39677E-02   -0.35319E-02   624   0.115E+00    0.199E-01
DAV:  12    -0.103774491173E+02    0.94964E-04   -0.98959E-04   768   0.248E-01    0.146E-01
DAV:  13    -0.103774194123E+02    0.29705E-04   -0.34832E-04   648   0.990E-02    0.638E-02
DAV:  14    -0.103774205712E+02   -0.11589E-05   -0.15888E-04   640   0.659E-02    0.429E-02
DAV:  15    -0.103774212106E+02   -0.63939E-06   -0.38434E-06   728   0.163E-02    0.264E-02
DAV:  16    -0.103774201589E+02    0.10518E-05   -0.67178E-06   592   0.126E-02    0.376E-03
DAV:  17    -0.103774201800E+02   -0.21099E-07   -0.19939E-07   672   0.319E-03
   1 F= -.10377420E+02 E0= -.10377420E+02  d E =-.103774E+02
