PROCAR new format
# of k-points:   35         # of bands:    8         # of ions:    2

 k-point     1 :    0.00000000 0.00000000 0.00000000     weight = 0.00137174

band     1 # energy   -7.00977990 # occ.  2.00000000
 
ion      s      p      d    tot
    1  0.088  0.000  0.000  0.088
    2  0.363  0.000  0.000  0.363
tot    0.450  0.000  0.000  0.450
 
band     2 # energy    4.35418956 # occ.  2.00000000
 
ion      s      p      d    tot
    1  0.000  0.035  0.000  0.035
    2  0.000  0.412  0.000  0.412
tot    0.000  0.446  0.000  0.446
 
band     3 # energy    4.35418956 # occ.  2.00000000
 
ion      s      p      d    tot
    1  0.000  0.035  0.000  0.035
    2  0.000  0.412  0.000  0.412
tot    0.000  0.446  0.000  0.446
 
band     4 # energy    4.35418982 # occ.  2.00000000
 
ion      s      p      d    tot
    1  0.000  0.035  0.000  0.035
    2  0.000  0.412  0.000  0.412
tot    0.000  0.446  0.000  0.446
 
band     5 # energy    7.44752819 # occ.  0.00000000
 
ion      s      p      d    tot
    1  0.182  0.000  0.000  0.182
    2  0.356  0.000  0.000  0.356
tot    0.538  0.000  0.000  0.538
 
band     6 # energy    8.88089325 # occ.  0.00000000
 
ion      s      p      d    tot
    1  0.000  0.218  0.000  0.218
    2  0.000  0.019  0.000  0.019
tot    0.000  0.237  0.000  0.237
 
band     7 # energy    8.88089325 # occ.  0.00000000
 
ion      s      p      d    tot
    1  0.000  0.218  0.000  0.218
    2  0.000  0.019  0.000  0.019
tot    0.000  0.237  0.000  0.237
 
band     8 # energy    8.88089345 # occ.  0.00000000
 
ion      s      p      d    tot
    1  0.000  0.218  0.000  0.218
    2  0.000  0.019  0.000  0.019
tot    0.000  0.237  0.000  0.237
 

 k-point     2 :    0.11111111-0.00000000-0.00000000     weight = 0.01097394

band     1 # energy   -6.87711018 # occ.  2.00000000
 
ion      s      p      d    tot
    1  0.085  0.001  0.000  0.086
    2  0.367  0.001  0.000  0.368
tot    0.452  0.002  0.000  0.454
 
band     2 # energy    3.34273645 # occ.  2.00000000
 
ion      s      p      d    tot
    1  0.034  0.038  0.000  0.073
    2  0.055  0.306  0.000  0.361
tot    0.089  0.344  0.000  0.433
 
band     3 # energy    4.23709759 # occ.  2.00000000
 
ion      s      p      d    tot
    1  0.000  0.042  0.000  0.042
    2  0.000  0.401  0.000  0.401
tot    0.000  0.443  0.000  0.443
 
band     4 # energy    4.23709782 # occ.  2.00000000
 
ion      s      p      d    tot
    1  0.000  0.042  0.000  0.042
    2  0.000  0.401  0.000  0.401
tot    0.000  0.443  0.000  0.443
 
band     5 # energy    7.90559042 # occ.  0.00000000
 
ion      s      p      d    tot
    1  0.143  0.045  0.000  0.189
    2  0.241  0.039  0.000  0.280
tot    0.384  0.085  0.000  0.468
 
band     6 # energy    9.10774726 # occ.  0.00000000
 
ion      s      p      d    tot
    1  0.000  0.212  0.000  0.212
    2  0.000  0.031  0.000  0.031
tot    0.000  0.242  0.000  0.242
 
band     7 # energy    9.10774744 # occ.  0.00000000
 
ion      s      p      d    tot
    1  0.000  0.212  0.000  0.212
    2  0.000  0.031  0.000  0.031
tot    0.000  0.242  0.000  0.242
 
band     8 # energy    9.20669044 # occ.  0.00000000
 
ion      s      p      d    tot
    1  0.040  0.134  0.000  0.173
    2  0.051  0.091  0.000  0.142
tot    0.091  0.225  0.000  0.316
 

 k-point     3 :    0.22222222 0.00000000-0.00000000     weight = 0.01097394

band     1 # energy   -6.49823125 # occ.  2.00000000
 
ion      s      p      d    tot
    1  0.076  0.005  0.000  0.081
    2  0.381  0.003  0.000  0.384
tot    0.457  0.008  0.000  0.465
 
band     2 # energy    1.64222862 # occ.  2.00000000
 
ion      s      p      d    tot
    1  0.065  0.041  0.000  0.106
    2  0.075  0.225  0.000  0.300
tot    0.140  0.266  0.000  0.406
 
band     3 # energy    3.98553925 # occ.  2.00000000
 
ion      s      p      d    tot
    1  0.000  0.056  0.000  0.056
    2  0.000  0.382  0.000  0.382
tot    0.000  0.438  0.000  0.438
 
band     4 # energy    3.98553948 # occ.  2.00000000
 
ion      s      p      d    tot
    1  0.000  0.056  0.000  0.056
    2  0.000  0.382  0.000  0.382
tot    0.000  0.438  0.000  0.438
 
band     5 # energy    7.68059266 # occ.  0.00000000
 
ion      s      p      d    tot
    1  0.143  0.064  0.000  0.207
    2  0.145  0.018  0.000  0.163
tot    0.288  0.082  0.000  0.370
 
band     6 # energy    9.44461967 # occ.  0.00000000
 
ion      s      p      d    tot
    1  0.000  0.186  0.000  0.186
    2  0.000  0.043  0.000  0.043
tot    0.000  0.229  0.000  0.229
 
band     7 # energy    9.44461983 # occ.  0.00000000
 
ion      s      p      d    tot
    1  0.000  0.186  0.000  0.186
    2  0.000  0.043  0.000  0.043
tot    0.000  0.229  0.000  0.229
 
band     8 # energy   10.71508768 # occ.  0.00000000
 
ion      s      p      d    tot
    1  0.061  0.058  0.000  0.119
    2  0.091  0.209  0.000  0.300
tot    0.152  0.267  0.000  0.419
 

 k-point     4 :    0.33333333-0.00000000-0.00000000     weight = 0.01097394

band     1 # energy   -5.95269915 # occ.  2.00000000
 
ion      s      p      d    tot
    1  0.061  0.011  0.000  0.072
    2  0.411  0.004  0.000  0.415
tot    0.472  0.015  0.000  0.487
 
band     2 # energy    0.09107008 # occ.  2.00000000
 
ion      s      p      d    tot
    1  0.091  0.038  0.000  0.129
    2  0.057  0.186  0.000  0.243
tot    0.148  0.225  0.000  0.373
 
band     3 # energy    3.75288058 # occ.  2.00000000
 
ion      s      p      d    tot
    1  0.000  0.066  0.000  0.066
    2  0.000  0.370  0.000  0.370
tot    0.000  0.436  0.000  0.436
 
band     4 # energy    3.75288081 # occ.  2.00000000
 
ion      s      p      d    tot
    1  0.000  0.066  0.000  0.066
    2  0.000  0.370  0.000  0.370
tot    0.000  0.436  0.000  0.436
 
band     5 # energy    7.31240672 # occ.  0.00000000
 
ion      s      p      d    tot
    1  0.169  0.037  0.000  0.207
    2  0.136  0.013  0.000  0.149
tot    0.305  0.051  0.000  0.356
 
band     6 # energy    9.38048683 # occ.  0.00000000
 
ion      s      p      d    tot
    1  0.000  0.144  0.000  0.144
    2  0.000  0.035  0.000  0.035
tot    0.000  0.179  0.000  0.179
 
band     7 # energy    9.38048694 # occ.  0.00000000
 
ion      s      p      d    tot
    1  0.000  0.144  0.000  0.144
    2  0.000  0.035  0.000  0.035
tot    0.000  0.179  0.000  0.179
 
band     8 # energy   12.15479213 # occ.  0.00000000
 
ion      s      p      d    tot
    1  0.022  0.042  0.000  0.064
    2  0.039  0.248  0.000  0.287
tot    0.061  0.290  0.000  0.351
 

 k-point     5 :    0.44444444 0.00000000-0.00000000     weight = 0.01097394

band     1 # energy   -5.47154566 # occ.  2.00000000
 
ion      s      p      d    tot
    1  0.043  0.016  0.000  0.059
    2  0.454  0.002  0.000  0.455
tot    0.497  0.017  0.000  0.514
 
band     2 # energy   -0.91685922 # occ.  2.00000000
 
ion      s      p      d    tot
    1  0.114  0.034  0.000  0.148
    2  0.019  0.172  0.000  0.191
tot    0.133  0.207  0.000  0.340
 
band     3 # energy    3.62232313 # occ.  2.00000000
 
ion      s      p      d    tot
    1  0.000  0.072  0.000  0.072
    2  0.000  0.365  0.000  0.365
tot    0.000  0.437  0.000  0.437
 
band     4 # energy    3.62232336 # occ.  2.00000000
 
ion      s      p      d    tot
    1  0.000  0.072  0.000  0.072
    2  0.000  0.365  0.000  0.365
tot    0.000  0.437  0.000  0.437
 
band     5 # energy    7.10307969 # occ.  0.00000000
 
ion      s      p      d    tot
    1  0.184  0.021  0.000  0.205
    2  0.137  0.012  0.000  0.149
tot    0.321  0.033  0.000  0.354
 
band     6 # energy    9.19565901 # occ.  0.00000000
 
ion      s      p      d    tot
    1  0.000  0.124  0.000  0.124
    2  0.000  0.028  0.000  0.028
tot    0.000  0.152  0.000  0.152
 
band     7 # energy    9.19565910 # occ.  0.00000000
 
ion      s      p      d    tot
    1  0.000  0.124  0.000  0.124
    2  0.000  0.028  0.000  0.028
tot    0.000  0.152  0.000  0.152
 
band     8 # energy   12.55004903 # occ.  0.00000000
 
ion      s      p      d    tot
    1  0.000  0.021  0.000  0.022
    2  0.005  0.173  0.000  0.179
tot    0.006  0.195  0.000  0.200
 

 k-point     6 :    0.11111111 0.11111111-0.00000000     weight = 0.00823045

band     1 # energy   -6.83265418 # occ.  2.00000000
 
ion      s      p      d    tot
    1  0.084  0.002  0.000  0.086
    2  0.368  0.001  0.000  0.369
tot    0.452  0.003  0.000  0.455
 
band     2 # energy    3.42074401 # occ.  2.00000000
 
ion      s      p      d    tot
    1  0.047  0.026  0.000  0.073
    2  0.075  0.305  0.000  0.380
tot    0.122  0.331  0.000  0.453
 
band     3 # energy    3.97906767 # occ.  2.00000000
 
ion      s      p      d    tot
    1  0.000  0.052  0.000  0.052
    2  0.000  0.376  0.000  0.376
tot    0.000  0.428  0.000  0.428
 
band     4 # energy    3.97906783 # occ.  2.00000000
 
ion      s      p      d    tot
    1  0.000  0.052  0.000  0.052
    2  0.000  0.376  0.000  0.376
tot    0.000  0.428  0.000  0.428
 
band     5 # energy    8.36079065 # occ.  0.00000000
 
ion      s      p      d    tot
    1  0.148  0.064  0.000  0.211
    2  0.079  0.099  0.000  0.178
tot    0.227  0.163  0.000  0.390
 
band     6 # energy    8.42282445 # occ.  0.00000000
 
ion      s      p      d    tot
    1  0.030  0.126  0.000  0.155
    2  0.182  0.033  0.000  0.215
tot    0.212  0.158  0.000  0.370
 
band     7 # energy    9.50055560 # occ.  0.00000000
 
ion      s      p      d    tot
    1  0.000  0.200  0.000  0.200
    2  0.000  0.057  0.000  0.057
tot    0.000  0.256  0.000  0.256
 
band     8 # energy    9.50055574 # occ.  0.00000000
 
ion      s      p      d    tot
    1  0.000  0.200  0.000  0.200
    2  0.000  0.057  0.000  0.057
tot    0.000  0.256  0.000  0.256
 

 k-point     7 :    0.22222222 0.11111111-0.00000000     weight = 0.03292181

band     1 # energy   -6.53454054 # occ.  2.00000000
 
ion      s      p      d    tot
    1  0.077  0.005  0.000  0.082
    2  0.379  0.003  0.000  0.382
tot    0.456  0.008  0.000  0.464
 
band     2 # energy    2.11272015 # occ.  2.00000000
 
ion      s      p      d    tot
    1  0.067  0.034  0.000  0.101
    2  0.086  0.240  0.000  0.326
tot    0.153  0.275  0.000  0.427
 
band     3 # energy    3.65769833 # occ.  2.00000000
 
ion      s      p      d    tot
    1  0.000  0.064  0.000  0.064
    2  0.000  0.355  0.000  0.355
tot    0.000  0.419  0.000  0.419
 
band     4 # energy    3.75347027 # occ.  2.00000000
 
ion      s      p      d    tot
    1  0.011  0.055  0.000  0.066
    2  0.009  0.353  0.000  0.362
tot    0.020  0.408  0.000  0.428
 
band     5 # energy    8.13471470 # occ.  0.00000000
 
ion      s      p      d    tot
    1  0.083  0.105  0.000  0.188
    2  0.041  0.054  0.000  0.095
tot    0.124  0.159  0.000  0.283
 
band     6 # energy    8.88795235 # occ.  0.00000000
 
ion      s      p      d    tot
    1  0.080  0.104  0.000  0.184
    2  0.127  0.081  0.000  0.208
tot    0.207  0.185  0.000  0.392
 
band     7 # energy   10.03925968 # occ.  0.00000000
 
ion      s      p      d    tot
    1  0.000  0.181  0.000  0.181
    2  0.000  0.076  0.000  0.076
tot    0.000  0.257  0.000  0.257
 
band     8 # energy   10.11964914 # occ.  0.00000000
 
ion      s      p      d    tot
    1  0.012  0.101  0.000  0.114
    2  0.015  0.095  0.000  0.111
tot    0.028  0.197  0.000  0.224
 

 k-point     8 :    0.33333333 0.11111111-0.00000000     weight = 0.03292181

band     1 # energy   -6.03726423 # occ.  2.00000000
 
ion      s      p      d    tot
    1  0.064  0.010  0.000  0.074
    2  0.404  0.004  0.000  0.409
tot    0.468  0.015  0.000  0.482
 
band     2 # energy    0.58911340 # occ.  2.00000000
 
ion      s      p      d    tot
    1  0.089  0.037  0.000  0.126
    2  0.071  0.195  0.000  0.266
tot    0.160  0.232  0.000  0.392
 
band     3 # energy    3.40246646 # occ.  2.00000000
 
ion      s      p      d    tot
    1  0.021  0.060  0.000  0.081
    2  0.014  0.326  0.000  0.340
tot    0.035  0.386  0.000  0.421
 
band     4 # energy    3.42997435 # occ.  2.00000000
 
ion      s      p      d    tot
    1  0.000  0.073  0.000  0.073
    2  0.000  0.345  0.000  0.345
tot    0.000  0.417  0.000  0.417
 
band     5 # energy    7.87199017 # occ.  0.00000000
 
ion      s      p      d    tot
    1  0.116  0.056  0.000  0.172
    2  0.076  0.066  0.000  0.142
tot    0.192  0.122  0.000  0.314
 
band     6 # energy    9.18297832 # occ.  0.00000000
 
ion      s      p      d    tot
    1  0.036  0.128  0.000  0.164
    2  0.039  0.051  0.000  0.090
tot    0.075  0.179  0.000  0.254
 
band     7 # energy   10.10850696 # occ.  0.00000000
 
ion      s      p      d    tot
    1  0.000  0.145  0.000  0.145
    2  0.000  0.067  0.000  0.067
tot    0.000  0.211  0.000  0.211
 
band     8 # energy   10.56059889 # occ.  0.00000000
 
ion      s      p      d    tot
    1  0.023  0.052  0.000  0.074
    2  0.027  0.102  0.000  0.129
tot    0.050  0.154  0.000  0.203
 

 k-point     9 :    0.44444444 0.11111111-0.00000000     weight = 0.03292181

band     1 # energy   -5.50588054 # occ.  2.00000000
 
ion      s      p      d    tot
    1  0.045  0.016  0.000  0.060
    2  0.446  0.003  0.000  0.449
tot    0.491  0.019  0.000  0.509
 
band     2 # energy   -0.58980347 # occ.  2.00000000
 
ion      s      p      d    tot
    1  0.114  0.034  0.000  0.148
    2  0.033  0.175  0.000  0.208
tot    0.146  0.209  0.000  0.355
 
band     3 # energy    3.06124269 # occ.  2.00000000
 
ion      s      p      d    tot
    1  0.026  0.063  0.000  0.090
    2  0.016  0.307  0.000  0.323
tot    0.043  0.370  0.000  0.413
 
band     4 # energy    3.36340567 # occ.  2.00000000
 
ion      s      p      d    tot
    1  0.000  0.077  0.000  0.077
    2  0.000  0.345  0.000  0.345
tot    0.000  0.422  0.000  0.422
 
band     5 # energy    7.68186765 # occ.  0.00000000
 
ion      s      p      d    tot
    1  0.136  0.036  0.000  0.172
    2  0.089  0.062  0.000  0.151
tot    0.225  0.099  0.000  0.324
 
band     6 # energy    9.01840552 # occ.  0.00000000
 
ion      s      p      d    tot
    1  0.020  0.098  0.000  0.119
    2  0.021  0.047  0.000  0.068
tot    0.042  0.145  0.000  0.187
 
band     7 # energy    9.81251175 # occ.  0.00000000
 
ion      s      p      d    tot
    1  0.000  0.121  0.000  0.121
    2  0.000  0.051  0.000  0.051
tot    0.000  0.172  0.000  0.172
 
band     8 # energy   11.89469395 # occ.  0.00000000
 
ion      s      p      d    tot
    1  0.018  0.065  0.000  0.084
    2  0.015  0.153  0.000  0.169
tot    0.034  0.219  0.000  0.252
 

 k-point    10 :   -0.44444444 0.11111111-0.00000000     weight = 0.03292181

band     1 # energy   -5.31429323 # occ.  2.00000000
 
ion      s      p      d    tot
    1  0.036  0.018  0.000  0.054
    2  0.468  0.001  0.000  0.469
tot    0.504  0.019  0.000  0.523
 
band     2 # energy   -0.94662604 # occ.  2.00000000
 
ion      s      p      d    tot
    1  0.124  0.032  0.000  0.156
    2  0.012  0.172  0.000  0.184
tot    0.135  0.204  0.000  0.340
 
band     3 # energy    2.85184336 # occ.  2.00000000
 
ion      s      p      d    tot
    1  0.027  0.065  0.000  0.092
    2  0.016  0.297  0.000  0.313
tot    0.043  0.362  0.000  0.406
 
band     4 # energy    3.46684288 # occ.  2.00000000
 
ion      s      p      d    tot
    1  0.000  0.076  0.000  0.076
    2  0.000  0.353  0.000  0.353
tot    0.000  0.429  0.000  0.429
 
band     5 # energy    7.67692355 # occ.  0.00000000
 
ion      s      p      d    tot
    1  0.149  0.031  0.000  0.179
    2  0.098  0.061  0.000  0.158
tot    0.247  0.091  0.000  0.338
 
band     6 # energy    9.00672239 # occ.  0.00000000
 
ion      s      p      d    tot
    1  0.011  0.094  0.000  0.105
    2  0.015  0.049  0.000  0.064
tot    0.026  0.143  0.000  0.168
 
band     7 # energy    9.58385500 # occ.  0.00000000
 
ion      s      p      d    tot
    1  0.000  0.119  0.000  0.119
    2  0.000  0.040  0.000  0.040
tot    0.000  0.159  0.000  0.159
 
band     8 # energy   12.76619582 # occ.  0.00000000
 
ion      s      p      d    tot
    1  0.010  0.039  0.000  0.049
    2  0.001  0.225  0.000  0.226
tot    0.010  0.265  0.000  0.275
 

 k-point    11 :   -0.33333333 0.11111111-0.00000000     weight = 0.03292181

band     1 # energy   -5.67085019 # occ.  2.00000000
 
ion      s      p      d    tot
    1  0.051  0.014  0.000  0.065
    2  0.431  0.004  0.000  0.435
tot    0.482  0.018  0.000  0.500
 
band     2 # energy   -0.25529789 # occ.  2.00000000
 
ion      s      p      d    tot
    1  0.105  0.035  0.000  0.141
    2  0.047  0.179  0.000  0.226
tot    0.152  0.215  0.000  0.367
 
band     3 # energy    2.83330118 # occ.  2.00000000
 
ion      s      p      d    tot
    1  0.024  0.067  0.000  0.091
    2  0.013  0.296  0.000  0.309
tot    0.037  0.362  0.000  0.399
 
band     4 # energy    3.70906772 # occ.  2.00000000
 
ion      s      p      d    tot
    1  0.000  0.070  0.000  0.070
    2  0.000  0.368  0.000  0.368
tot    0.000  0.437  0.000  0.437
 
band     5 # energy    7.86092535 # occ.  0.00000000
 
ion      s      p      d    tot
    1  0.150  0.038  0.000  0.188
    2  0.103  0.063  0.000  0.166
tot    0.253  0.101  0.000  0.354
 
band     6 # energy    9.24696328 # occ.  0.00000000
 
ion      s      p      d    tot
    1  0.004  0.104  0.000  0.108
    2  0.011  0.052  0.000  0.063
tot    0.015  0.156  0.000  0.171
 
band     7 # energy    9.55045703 # occ.  0.00000000
 
ion      s      p      d    tot
    1  0.000  0.136  0.000  0.136
    2  0.000  0.036  0.000  0.036
tot    0.000  0.172  0.000  0.172
 
band     8 # energy   12.05577343 # occ.  0.00000000
 
ion      s      p      d    tot
    1  0.030  0.049  0.000  0.078
    2  0.027  0.221  0.000  0.248
tot    0.057  0.270  0.000  0.326
 

 k-point    12 :   -0.22222222 0.11111111 0.00000000     weight = 0.03292181

band     1 # energy   -6.22104080 # occ.  2.00000000
 
ion      s      p      d    tot
    1  0.069  0.008  0.000  0.077
    2  0.394  0.004  0.000  0.398
tot    0.463  0.012  0.000  0.475
 
band     2 # energy    1.07243785 # occ.  2.00000000
 
ion      s      p      d    tot
    1  0.081  0.037  0.000  0.118
    2  0.079  0.207  0.000  0.286
tot    0.160  0.244  0.000  0.404
 
band     3 # energy    3.04411698 # occ.  2.00000000
 
ion      s      p      d    tot
    1  0.017  0.067  0.000  0.084
    2  0.007  0.305  0.000  0.312
tot    0.024  0.372  0.000  0.396
 
band     4 # energy    4.01536704 # occ.  2.00000000
 
ion      s      p      d    tot
    1  0.000  0.058  0.000  0.058
    2  0.000  0.388  0.000  0.388
tot    0.000  0.446  0.000  0.446
 
band     5 # energy    8.19003913 # occ.  0.00000000
 
ion      s      p      d    tot
    1  0.137  0.059  0.000  0.196
    2  0.109  0.067  0.000  0.176
tot    0.247  0.126  0.000  0.372
 
band     6 # energy    9.46239200 # occ.  0.00000000
 
ion      s      p      d    tot
    1  0.011  0.132  0.000  0.143
    2  0.020  0.061  0.000  0.081
tot    0.031  0.193  0.000  0.224
 
band     7 # energy    9.53149012 # occ.  0.00000000
 
ion      s      p      d    tot
    1  0.000  0.185  0.000  0.185
    2  0.000  0.037  0.000  0.037
tot    0.000  0.221  0.000  0.221
 
band     8 # energy   10.79501839 # occ.  0.00000000
 
ion      s      p      d    tot
    1  0.044  0.046  0.000  0.090
    2  0.052  0.182  0.000  0.234
tot    0.096  0.228  0.000  0.324
 

 k-point    13 :   -0.11111111 0.11111111-0.00000000     weight = 0.01646091

band     1 # energy   -6.66161970 # occ.  2.00000000
 
ion      s      p      d    tot
    1  0.080  0.004  0.000  0.084
    2  0.374  0.002  0.000  0.376
tot    0.454  0.006  0.000  0.460
 
band     2 # energy    2.48640004 # occ.  2.00000000
 
ion      s      p      d    tot
    1  0.057  0.035  0.000  0.092
    2  0.082  0.256  0.000  0.339
tot    0.140  0.292  0.000  0.431
 
band     3 # energy    3.55893865 # occ.  2.00000000
 
ion      s      p      d    tot
    1  0.007  0.062  0.000  0.069
    2  0.000  0.338  0.000  0.338
tot    0.007  0.400  0.000  0.407
 
band     4 # energy    4.24740957 # occ.  2.00000000
 
ion      s      p      d    tot
    1  0.000  0.045  0.000  0.045
    2  0.000  0.405  0.000  0.405
tot    0.000  0.450  0.000  0.450
 
band     5 # energy    8.38525768 # occ.  0.00000000
 
ion      s      p      d    tot
    1  0.139  0.062  0.000  0.202
    2  0.175  0.073  0.000  0.247
tot    0.314  0.135  0.000  0.449
 
band     6 # energy    8.96236763 # occ.  0.00000000
 
ion      s      p      d    tot
    1  0.026  0.139  0.000  0.166
    2  0.021  0.065  0.000  0.085
tot    0.047  0.204  0.000  0.251
 
band     7 # energy    9.21806192 # occ.  0.00000000
 
ion      s      p      d    tot
    1  0.000  0.214  0.000  0.214
    2  0.000  0.027  0.000  0.027
tot    0.000  0.241  0.000  0.241
 
band     8 # energy   10.14332631 # occ.  0.00000000
 
ion      s      p      d    tot
    1  0.023  0.120  0.000  0.143
    2  0.043  0.134  0.000  0.177
tot    0.066  0.254  0.000  0.320
 

 k-point    14 :    0.22222222 0.22222222-0.00000000     weight = 0.00823045

band     1 # energy   -6.32347345 # occ.  2.00000000
 
ion      s      p      d    tot
    1  0.071  0.007  0.000  0.079
    2  0.387  0.004  0.000  0.392
tot    0.459  0.011  0.000  0.470
 
band     2 # energy    1.86755840 # occ.  2.00000000
 
ion      s      p      d    tot
    1  0.095  0.019  0.000  0.114
    2  0.109  0.226  0.000  0.335
tot    0.204  0.245  0.000  0.449
 
band     3 # energy    3.26951567 # occ.  2.00000000
 
ion      s      p      d    tot
    1  0.000  0.074  0.000  0.074
    2  0.000  0.332  0.000  0.332
tot    0.000  0.406  0.000  0.406
 
band     4 # energy    3.26951583 # occ.  2.00000000
 
ion      s      p      d    tot
    1  0.000  0.074  0.000  0.074
    2  0.000  0.332  0.000  0.332
tot    0.000  0.406  0.000  0.406
 
band     5 # energy    7.44737614 # occ.  0.00000000
 
ion      s      p      d    tot
    1  0.067  0.122  0.000  0.188
    2  0.012  0.011  0.000  0.023
tot    0.078  0.133  0.000  0.211
 
band     6 # energy    8.69021926 # occ.  0.00000000
 
ion      s      p      d    tot
    1  0.081  0.015  0.000  0.096
    2  0.079  0.100  0.000  0.179
tot    0.159  0.116  0.000  0.275
 
band     7 # energy   10.92685295 # occ.  0.00000000
 
ion      s      p      d    tot
    1  0.000  0.174  0.000  0.174
    2  0.000  0.105  0.000  0.105
tot    0.000  0.279  0.000  0.279
 
band     8 # energy   10.92685310 # occ.  0.00000000
 
ion      s      p      d    tot
    1  0.000  0.174  0.000  0.174
    2  0.000  0.105  0.000  0.105
tot    0.000  0.279  0.000  0.279
 

 k-point    15 :    0.33333333 0.22222222-0.00000000     weight = 0.03292181

band     1 # energy   -5.90260584 # occ.  2.00000000
 
ion      s      p      d    tot
    1  0.059  0.012  0.000  0.071
    2  0.410  0.005  0.000  0.415
tot    0.469  0.017  0.000  0.486
 
band     2 # energy    0.84936243 # occ.  2.00000000
 
ion      s      p      d    tot
    1  0.113  0.022  0.000  0.135
    2  0.092  0.199  0.000  0.291
tot    0.205  0.221  0.000  0.426
 
band     3 # energy    2.80873334 # occ.  2.00000000
 
ion      s      p      d    tot
    1  0.015  0.073  0.000  0.088
    2  0.006  0.298  0.000  0.304
tot    0.020  0.372  0.000  0.392
 
band     4 # energy    2.99797790 # occ.  2.00000000
 
ion      s      p      d    tot
    1  0.000  0.081  0.000  0.081
    2  0.000  0.321  0.000  0.321
tot    0.000  0.402  0.000  0.402
 
band     5 # energy    7.32657454 # occ.  0.00000000
 
ion      s      p      d    tot
    1  0.056  0.094  0.000  0.150
    2  0.023  0.028  0.000  0.051
tot    0.079  0.122  0.000  0.201
 
band     6 # energy    8.51287773 # occ.  0.00000000
 
ion      s      p      d    tot
    1  0.080  0.014  0.000  0.094
    2  0.035  0.088  0.000  0.122
tot    0.115  0.102  0.000  0.217
 
band     7 # energy   10.89827851 # occ.  0.00000000
 
ion      s      p      d    tot
    1  0.029  0.118  0.000  0.147
    2  0.049  0.100  0.000  0.149
tot    0.078  0.218  0.000  0.295
 
band     8 # energy   11.40116380 # occ.  0.00000000
 
ion      s      p      d    tot
    1  0.000  0.148  0.000  0.148
    2  0.000  0.104  0.000  0.104
tot    0.000  0.252  0.000  0.252
 

 k-point    16 :    0.44444444 0.22222222-0.00000000     weight = 0.03292181

band     1 # energy   -5.39237987 # occ.  2.00000000
 
ion      s      p      d    tot
    1  0.040  0.018  0.000  0.057
    2  0.450  0.004  0.000  0.454
tot    0.489  0.022  0.000  0.512
 
band     2 # energy   -0.18131906 # occ.  2.00000000
 
ion      s      p      d    tot
    1  0.134  0.024  0.000  0.159
    2  0.051  0.179  0.000  0.230
tot    0.185  0.203  0.000  0.388
 
band     3 # energy    2.19177197 # occ.  2.00000000
 
ion      s      p      d    tot
    1  0.030  0.067  0.000  0.097
    2  0.013  0.263  0.000  0.276
tot    0.043  0.330  0.000  0.373
 
band     4 # energy    2.91758009 # occ.  2.00000000
 
ion      s      p      d    tot
    1  0.000  0.084  0.000  0.084
    2  0.000  0.320  0.000  0.320
tot    0.000  0.404  0.000  0.404
 
band     5 # energy    7.30744656 # occ.  0.00000000
 
ion      s      p      d    tot
    1  0.059  0.060  0.000  0.119
    2  0.034  0.033  0.000  0.067
tot    0.093  0.093  0.000  0.186
 
band     6 # energy    9.39389619 # occ.  0.00000000
 
ion      s      p      d    tot
    1  0.076  0.012  0.000  0.088
    2  0.007  0.149  0.000  0.156
tot    0.084  0.161  0.000  0.245
 
band     7 # energy   10.71800969 # occ.  0.00000000
 
ion      s      p      d    tot
    1  0.035  0.123  0.000  0.159
    2  0.065  0.072  0.000  0.137
tot    0.100  0.195  0.000  0.295
 
band     8 # energy   11.18650029 # occ.  0.00000000
 
ion      s      p      d    tot
    1  0.000  0.118  0.000  0.118
    2  0.000  0.083  0.000  0.083
tot    0.000  0.201  0.000  0.201
 

 k-point    17 :   -0.44444444 0.22222222 0.00000000     weight = 0.03292181

band     1 # energy   -5.08253579 # occ.  2.00000000
 
ion      s      p      d    tot
    1  0.024  0.022  0.000  0.046
    2  0.486  0.002  0.000  0.488
tot    0.510  0.023  0.000  0.533
 
band     2 # energy   -0.70571536 # occ.  2.00000000
 
ion      s      p      d    tot
    1  0.150  0.025  0.000  0.175
    2  0.012  0.173  0.000  0.185
tot    0.162  0.197  0.000  0.360
 
band     3 # energy    1.72493519 # occ.  2.00000000
 
ion      s      p      d    tot
    1  0.036  0.064  0.000  0.099
    2  0.016  0.246  0.000  0.262
tot    0.052  0.310  0.000  0.361
 
band     4 # energy    3.04248955 # occ.  2.00000000
 
ion      s      p      d    tot
    1  0.000  0.083  0.000  0.083
    2  0.000  0.327  0.000  0.327
tot    0.000  0.411  0.000  0.411
 
band     5 # energy    7.42906953 # occ.  0.00000000
 
ion      s      p      d    tot
    1  0.069  0.050  0.000  0.119
    2  0.037  0.034  0.000  0.071
tot    0.106  0.084  0.000  0.190
 
band     6 # energy   10.01520499 # occ.  0.00000000
 
ion      s      p      d    tot
    1  0.069  0.027  0.000  0.096
    2  0.034  0.168  0.000  0.201
tot    0.102  0.195  0.000  0.297
 
band     7 # energy   10.82431114 # occ.  0.00000000
 
ion      s      p      d    tot
    1  0.000  0.109  0.000  0.109
    2  0.000  0.072  0.000  0.072
tot    0.000  0.181  0.000  0.181
 
band     8 # energy   11.56883376 # occ.  0.00000000
 
ion      s      p      d    tot
    1  0.037  0.087  0.000  0.124
    2  0.022  0.117  0.000  0.139
tot    0.059  0.204  0.000  0.263
 

 k-point    18 :   -0.33333333 0.22222222-0.00000000     weight = 0.03292181

band     1 # energy   -5.26890676 # occ.  2.00000000
 
ion      s      p      d    tot
    1  0.034  0.019  0.000  0.053
    2  0.464  0.003  0.000  0.468
tot    0.499  0.022  0.000  0.521
 
band     2 # energy   -0.38173266 # occ.  2.00000000
 
ion      s      p      d    tot
    1  0.140  0.027  0.000  0.167
    2  0.035  0.174  0.000  0.209
tot    0.174  0.201  0.000  0.375
 
band     3 # energy    1.57771015 # occ.  2.00000000
 
ion      s      p      d    tot
    1  0.032  0.065  0.000  0.098
    2  0.011  0.243  0.000  0.253
tot    0.043  0.308  0.000  0.351
 
band     4 # energy    3.34239972 # occ.  2.00000000
 
ion      s      p      d    tot
    1  0.000  0.079  0.000  0.079
    2  0.000  0.343  0.000  0.343
tot    0.000  0.422  0.000  0.422
 
band     5 # energy    7.82135231 # occ.  0.00000000
 
ion      s      p      d    tot
    1  0.080  0.054  0.000  0.133
    2  0.041  0.039  0.000  0.079
tot    0.120  0.092  0.000  0.213
 
band     6 # energy   10.08401846 # occ.  0.00000000
 
ion      s      p      d    tot
    1  0.051  0.053  0.000  0.104
    2  0.046  0.138  0.000  0.184
tot    0.096  0.191  0.000  0.288
 
band     7 # energy   10.55872176 # occ.  0.00000000
 
ion      s      p      d    tot
    1  0.000  0.125  0.000  0.125
    2  0.000  0.070  0.000  0.070
tot    0.000  0.194  0.000  0.194
 
band     8 # energy   11.82755762 # occ.  0.00000000
 
ion      s      p      d    tot
    1  0.059  0.030  0.000  0.089
    2  0.017  0.231  0.000  0.247
tot    0.076  0.261  0.000  0.337
 

 k-point    19 :   -0.22222222 0.22222222 0.00000000     weight = 0.01646091

band     1 # energy   -5.75870074 # occ.  2.00000000
 
ion      s      p      d    tot
    1  0.055  0.013  0.000  0.068
    2  0.421  0.005  0.000  0.426
tot    0.476  0.018  0.000  0.494
 
band     2 # energy    0.41684611 # occ.  2.00000000
 
ion      s      p      d    tot
    1  0.111  0.030  0.000  0.141
    2  0.077  0.187  0.000  0.264
tot    0.188  0.217  0.000  0.405
 
band     3 # energy    1.96637182 # occ.  2.00000000
 
ion      s      p      d    tot
    1  0.026  0.070  0.000  0.096
    2  0.001  0.256  0.000  0.258
tot    0.028  0.326  0.000  0.354
 
band     4 # energy    3.72786213 # occ.  2.00000000
 
ion      s      p      d    tot
    1  0.000  0.069  0.000  0.069
    2  0.000  0.367  0.000  0.367
tot    0.000  0.436  0.000  0.436
 
band     5 # energy    8.35859926 # occ.  0.00000000
 
ion      s      p      d    tot
    1  0.100  0.066  0.000  0.166