<?xml version="1.0" encoding="ISO-8859-1"?>
<modeling>
 <generator>
  <i name="program" type="string">vasp </i>
  <i name="version" type="string">5.4.4.18Apr17-6-g9f103f2a35  </i>
  <i name="subversion" type="string">(build Apr 10 2018 17:34:00) complex            parallel </i>
  <i name="platform" type="string">LinuxIFC </i>
  <i name="date" type="string">2018 10 04 </i>
  <i name="time" type="string">08:04:33 </i>
 </generator>
 <incar>
  <i type="string" name="SYSTEM"> AlP</i>
  <i type="string" name="PREC">accurate  ! calcululation level (change</i>
  <i type="string" name="ALGO"> NORMAL    ! A Davidson blocked iteratio</i>
  <i type="logical" name="ADDGRID"> T  </i>
  <i type="int" name="ISPIN">     1</i>
  <i name="AMIX">      0.20000000</i>
  <i name="BMIX">      0.00100000</i>
  <i type="int" name="NELM">   100</i>
  <i type="int" name="NELMDL">    -8</i>
  <i type="int" name="NELMIN">     6</i>
  <i type="int" name="IBRION">     2</i>
  <i name="EDIFF">      0.00000010</i>
  <i name="EDIFFG">     -0.00100000</i>
  <i type="int" name="NSW">   100</i>
  <i type="int" name="ISIF">     3</i>
  <i name="ENCUT">    510.00000000</i>
  <i name="POTIM">      0.50000000</i>
  <i type="int" name="NEDOS">    11</i>
  <i type="logical" name="LREAL"> F  </i>
  <i type="logical" name="LPLANE"> T  </i>
  <i type="int" name="ISMEAR">     0</i>
  <i name="SIGMA">      0.01000000</i>
  <i type="int" name="NWRITE">     1</i>
  <i type="int" name="LMAXMIX">     6</i>
  <i type="logical" name="LWAVE"> F  </i>
  <i type="logical" name="LCHARG"> F  </i>
  <i type="int" name="LORBIT">    10</i>
  <i type="logical" name="LASPH"> T  </i>
  <v type="int" name="KPOINT_BSE">    -1     0     0     0</v>
  <i type="int" name="NELM">   100</i>
  <i type="logical" name="LASPH"> T  </i>
 </incar>
 <structure name="primitive_cell" >
  <crystal>
   <varray name="basis" >
    <v>       0.00000000       2.75279623       2.75279623 </v>
    <v>       2.75279623       0.00000000       2.75279623 </v>
    <v>       2.75279623       2.75279623       0.00000000 </v>
   </varray>
   <i name="volume">     41.72075819 </i>
   <varray name="rec_basis" >
    <v>      -0.18163349       0.18163349       0.18163349 </v>
    <v>       0.18163349      -0.18163349       0.18163349 </v>
    <v>       0.18163349       0.18163349      -0.18163349 </v>
   </varray>
  </crystal>
  <varray name="positions" >
   <v>       0.00000000       0.00000000       0.00000000 </v>
   <v>       0.25000000       0.25000000       0.25000000 </v>
  </varray>
 </structure>
 <varray name="primitive_index" >
  <v type="int" >        1 </v>
  <v type="int" >        2 </v>
 </varray>
 <kpoints>
  <generation param="Auto">
   <i name="subdivisionlength">     30.00000000 </i>
   <v type="int" name="divisions">       9        9        9 </v>
   <v name="usershift">      0.00000000       0.00000000       0.00000000 </v>
   <v name="genvec1">      0.11111111       0.00000000      -0.00000000 </v>
   <v name="genvec2">      0.00000000       0.11111111       0.00000000 </v>
   <v name="genvec3">     -0.00000000      -0.00000000       0.11111111 </v>
   <v name="shift">      0.00000000       0.00000000       0.00000000 </v>
  </generation>
  <varray name="kpointlist" >
   <v>       0.00000000       0.00000000       0.00000000 </v>
   <v>       0.11111111      -0.00000000      -0.00000000 </v>
   <v>       0.22222222       0.00000000      -0.00000000 </v>
   <v>       0.33333333      -0.00000000      -0.00000000 </v>
   <v>       0.44444444       0.00000000      -0.00000000 </v>
   <v>       0.11111111       0.11111111      -0.00000000 </v>
   <v>       0.22222222       0.11111111      -0.00000000 </v>
   <v>       0.33333333       0.11111111      -0.00000000 </v>
   <v>       0.44444444       0.11111111      -0.00000000 </v>
   <v>      -0.44444444       0.11111111      -0.00000000 </v>
   <v>      -0.33333333       0.11111111      -0.00000000 </v>
   <v>      -0.22222222       0.11111111       0.00000000 </v>
   <v>      -0.11111111       0.11111111      -0.00000000 </v>
   <v>       0.22222222       0.22222222      -0.00000000 </v>
   <v>       0.33333333       0.22222222      -0.00000000 </v>
   <v>       0.44444444       0.22222222      -0.00000000 </v>
   <v>      -0.44444444       0.22222222       0.00000000 </v>
   <v>      -0.33333333       0.22222222      -0.00000000 </v>
   <v>      -0.22222222       0.22222222       0.00000000 </v>
   <v>       0.33333333       0.33333333      -0.00000000 </v>
   <v>       0.44444444       0.33333333      -0.00000000 </v>
   <v>      -0.44444444       0.33333333      -0.00000000 </v>
   <v>      -0.33333333       0.33333333       0.00000000 </v>
   <v>       0.44444444       0.44444444      -0.00000000 </v>
   <v>      -0.44444444       0.44444444       0.00000000 </v>
   <v>       0.33333333       0.22222222       0.11111111 </v>
   <v>       0.44444444       0.22222222       0.11111111 </v>
   <v>      -0.44444444       0.22222222       0.11111111 </v>
   <v>       0.44444444       0.33333333       0.11111111 </v>
   <v>      -0.44444444       0.33333333       0.11111111 </v>
   <v>      -0.33333333       0.33333333       0.11111111 </v>
   <v>      -0.22222222       0.33333333       0.11111111 </v>
   <v>      -0.44444444       0.44444444       0.11111111 </v>
   <v>      -0.33333333       0.44444444       0.11111111 </v>
   <v>      -0.33333333       0.44444444       0.22222222 </v>
  </varray>
  <varray name="weights" >
   <v>       0.00137174 </v>
   <v>       0.01097394 </v>
   <v>       0.01097394 </v>
   <v>       0.01097394 </v>
   <v>       0.01097394 </v>
   <v>       0.00823045 </v>
   <v>       0.03292181 </v>
   <v>       0.03292181 </v>
   <v>       0.03292181 </v>
   <v>       0.03292181 </v>
   <v>       0.03292181 </v>
   <v>       0.03292181 </v>
   <v>       0.01646091 </v>
   <v>       0.00823045 </v>
   <v>       0.03292181 </v>
   <v>       0.03292181 </v>
   <v>       0.03292181 </v>
   <v>       0.03292181 </v>
   <v>       0.01646091 </v>
   <v>       0.00823045 </v>
   <v>       0.03292181 </v>
   <v>       0.03292181 </v>
   <v>       0.01646091 </v>
   <v>       0.00823045 </v>
   <v>       0.01646091 </v>
   <v>       0.03292181 </v>
   <v>       0.06584362 </v>
   <v>       0.06584362 </v>
   <v>       0.03292181 </v>
   <v>       0.06584362 </v>
   <v>       0.06584362 </v>
   <v>       0.03292181 </v>
   <v>       0.03292181 </v>
   <v>       0.03292181 </v>
   <v>       0.03292181 </v>
  </varray>
 </kpoints>
 <parameters>
  <separator name="general" >
   <i type="string" name="SYSTEM">AlP</i>
   <i type="logical" name="LCOMPAT"> F  </i>
  </separator>
  <separator name="electronic" >
   <i type="string" name="PREC">accura</i>
   <i name="ENMAX">    510.00000000</i>
   <i name="ENAUG">    342.92400000</i>
   <i name="EDIFF">      0.00000010</i>
   <i type="int" name="IALGO">    38</i>
   <i type="int" name="IWAVPR">    11</i>
   <i type="int" name="NBANDS">     8</i>
   <i name="NELECT">      8.00000000</i>
   <i type="int" name="TURBO">     0</i>
   <i type="int" name="IRESTART">     0</i>
   <i type="int" name="NREBOOT">     0</i>
   <i type="int" name="NMIN">     0</i>
   <i name="EREF">      0.00000000</i>
   <separator name="electronic smearing" >
    <i type="int" name="ISMEAR">     0</i>
    <i name="SIGMA">      0.01000000</i>
    <i name="KSPACING">      0.50000000</i>
    <i type="logical" name="KGAMMA"> T  </i>
   </separator>
   <separator name="electronic projectors" >
    <i type="logical" name="LREAL"> F  </i>
    <v name="ROPT">      0.00000000      0.00000000</v>
    <i type="int" name="LMAXPAW">  -100</i>
    <i type="int" name="LMAXMIX">     6</i>
    <i type="logical" name="NLSPLINE"> F  </i>
   </separator>
   <separator name="electronic startup" >
    <i type="int" name="ISTART">     0</i>
    <i type="int" name="ICHARG">     2</i>
    <i type="int" name="INIWAV">     1</i>
   </separator>
   <separator name="electronic spin" >
    <i type="int" name="ISPIN">     1</i>
    <i type="logical" name="LNONCOLLINEAR"> F  </i>
    <v name="MAGMOM">      1.00000000      1.00000000</v>
    <i name="NUPDOWN">     -1.00000000</i>
    <i type="logical" name="LSORBIT"> F  </i>
    <v name="SAXIS">      0.00000000      0.00000000      1.00000000</v>
    <i type="logical" name="LSPIRAL"> F  </i>
    <v name="QSPIRAL">      0.00000000      0.00000000      0.00000000</v>
    <i type="logical" name="LZEROZ"> F  </i>
   </separator>
   <separator name="electronic exchange-correlation" >
    <i type="logical" name="LASPH"> T  </i>
    <i type="logical" name="LMETAGGA"> F  </i>
   </separator>
   <separator name="electronic convergence" >
    <i type="int" name="NELM">   100</i>
    <i type="int" name="NELMDL">    -8</i>
    <i type="int" name="NELMIN">     6</i>
    <i name="ENINI">    510.00000000</i>
    <separator name="electronic convergence detail" >
     <i type="logical" name="LDIAG"> T  </i>
     <i type="logical" name="LSUBROT"> F  </i>
     <i name="WEIMIN">      0.00100000</i>
     <i name="EBREAK">      0.00000000</i>
     <i name="DEPER">      0.30000000</i>
     <i type="int" name="NRMM">     4</i>
     <i name="TIME">      0.40000000</i>
    </separator>
   </separator>
   <separator name="electronic mixer" >
    <i name="AMIX">      0.20000000</i>
    <i name="BMIX">      0.00100000</i>
    <i name="AMIN">      0.10000000</i>
    <i name="AMIX_MAG">      0.80000000</i>
    <i name="BMIX_MAG">      0.00100000</i>
    <separator name="electronic mixer details" >
     <i type="int" name="IMIX">     4</i>
     <i type="logical" name="MIXFIRST"> F  </i>
     <i type="int" name="MAXMIX">   -45</i>
     <i name="WC">    100.00000000</i>
     <i type="int" name="INIMIX">     1</i>
     <i type="int" name="MIXPRE">     1</i>
     <i type="int" name="MREMOVE">     5</i>
    </separator>
   </separator>
   <separator name="electronic dipolcorrection" >
    <i type="logical" name="LDIPOL"> F  </i>
    <i type="logical" name="LMONO"> F  </i>
    <i type="int" name="IDIPOL">     0</i>
    <i name="EPSILON">      1.00000000</i>
    <v name="DIPOL">   -100.00000000   -100.00000000   -100.00000000</v>
    <i name="EFIELD">      0.00000000</i>
   </separator>
  </separator>
  <separator name="grids" >
   <i type="int" name="NGX">    30</i>
   <i type="int" name="NGY">    30</i>
   <i type="int" name="NGZ">    30</i>
   <i type="int" name="NGXF">    60</i>
   <i type="int" name="NGYF">    60</i>
   <i type="int" name="NGZF">    60</i>
   <i type="logical" name="ADDGRID"> T  </i>
  </separator>
  <separator name="ionic" >
   <i type="int" name="NSW">   100</i>
   <i type="int" name="IBRION">     2</i>
   <i type="int" name="MDALGO">     0</i>
   <i type="int" name="ISIF">     3</i>
   <i name="PSTRESS">      0.00000000</i>
   <i name="EDIFFG">     -0.00100000</i>
   <i type="int" name="NFREE">     1</i>
   <i name="POTIM">      0.50000000</i>
   <i name="SMASS">     -3.00000000</i>
   <i name="SCALEE">      1.00000000</i>
  </separator>
  <separator name="ionic md" >
   <i name="TEBEG">      0.00010000</i>
   <i name="TEEND">      0.00010000</i>
   <i type="int" name="NBLOCK">     1</i>
   <i type="int" name="KBLOCK">   100</i>
   <i type="int" name="NPACO">   256</i>
   <i name="APACO">     16.00000000</i>
  </separator>
  <separator name="symmetry" >
   <i type="int" name="ISYM">     2</i>
   <i name="SYMPREC">      0.00001000</i>
  </separator>
  <separator name="dos" >
   <i type="int" name="LORBIT">    10</i>
   <v name="RWIGS">     -1.00000000     -1.00000000</v>
   <i type="int" name="NEDOS">    11</i>
   <i name="EMIN">     10.00000000</i>
   <i name="EMAX">    -10.00000000</i>
   <i name="EFERMI">      0.00000000</i>
  </separator>
  <separator name="writing" >
   <i type="int" name="NWRITE">     1</i>
   <i type="logical" name="LWAVE"> F  </i>
   <i type="logical" name="LDOWNSAMPLE"> F  </i>
   <i type="logical" name="LCHARG"> F  </i>
   <i type="logical" name="LPARD"> F  </i>
   <i type="logical" name="LVTOT"> F  </i>
   <i type="logical" name="LVHAR"> F  </i>
   <i type="logical" name="LELF"> F  </i>
   <i type="logical" name="LOPTICS"> F  </i>
   <v name="STM">      0.00000000      0.00000000      0.00000000      0.00000000      0.00000000      0.00000000      0.00000000</v>
  </separator>
  <separator name="performance" >
   <i type="int" name="NPAR">     2</i>
   <i type="int" name="NSIM">     4</i>
   <i type="int" name="NBLK">    -1</i>
   <i type="logical" name="LPLANE"> T  </i>
   <i type="logical" name="LSCALAPACK"> T  </i>
   <i type="logical" name="LSCAAWARE"> F  </i>
   <i type="logical" name="LSCALU"> F  </i>
   <i type="logical" name="LASYNC"> F  </i>
   <i type="logical" name="LORBITALREAL"> F  </i>
  </separator>
  <separator name="miscellaneous" >
   <i type="int" name="IDIOT">     3</i>
   <i type="int" name="ISPECIAL">     0</i>
   <i type="logical" name="LMUSIC"> F  </i>
   <v name="POMASS">     26.98100000     30.97400000</v>
   <v name="DARWINR">      0.00000000      0.00000000</v>
   <v name="DARWINV">      1.00000000      1.00000000</v>
   <i type="logical" name="LCORR"> T  </i>
  </separator>
  <i type="logical" name="GGA_COMPAT"> T  </i>
  <i type="logical" name="LBERRY"> F  </i>
  <i type="int" name="ICORELEVEL">     0</i>
  <i type="logical" name="LDAU"> F  </i>
  <i type="int" name="I_CONSTRAINED_M">     0</i>
  <separator name="electronic exchange-correlation" >
   <i type="string" name="GGA">--</i>
   <i type="int" name="VOSKOWN">     0</i>
   <i type="logical" name="LHFCALC"> F  </i>
   <i type="string" name="PRECFOCK"></i>
   <i type="logical" name="LSYMGRAD"> F  </i>
   <i type="logical" name="LHFONE"> F  </i>
   <i type="logical" name="LRHFCALC"> F  </i>
   <i type="logical" name="LTHOMAS"> F  </i>
   <i type="logical" name="LMODELHF"> F  </i>
   <i name="ENCUT4O">     -1.00000000</i>
   <i type="int" name="EXXOEP">     0</i>
   <i type="int" name="FOURORBIT">     0</i>
   <i name="AEXX">      0.00000000</i>
   <i name="HFALPHA">      0.00000000</i>
   <i name="MCALPHA">      0.00000000</i>
   <i name="ALDAX">      1.00000000</i>
   <i name="AGGAX">      1.00000000</i>
   <i name="ALDAC">      1.00000000</i>
   <i name="AGGAC">      1.00000000</i>
   <i type="int" name="NKREDX">     1</i>
   <i type="int" name="NKREDY">     1</i>
   <i type="int" name="NKREDZ">     1</i>
   <i type="logical" name="SHIFTRED"> F  </i>
   <i type="logical" name="ODDONLY"> F  </i>
   <i type="logical" name="EVENONLY"> F  </i>
   <i type="int" name="LMAXFOCK">     0</i>
   <i type="int" name="NMAXFOCKAE">     0</i>
   <i type="logical" name="LFOCKAEDFT"> F  </i>
   <i name="HFSCREEN">      0.00000000</i>
   <i name="HFSCREENC">      0.00000000</i>
   <i type="int" name="NBANDSGWLOW">     0</i>
  </separator>
  <separator name="vdW DFT" >
   <i type="logical" name="LUSE_VDW"> F  </i>
   <i name="Zab_VDW">     -0.84910000</i>
   <i name="PARAM1">      0.12340000</i>
   <i name="PARAM2">      1.00000000</i>
   <i name="PARAM3">      0.00000000</i>
  </separator>
  <separator name="model GW" >
   <i type="int" name="MODEL_GW">     0</i>
   <i name="MODEL_EPS0">     12.51622746</i>
   <i name="MODEL_ALPHA">      1.00000000</i>
  </separator>
  <separator name="linear response parameters" >
   <i type="logical" name="LEPSILON"> F  </i>
   <i type="logical" name="LRPA"> F  </i>
   <i type="logical" name="LNABLA"> F  </i>
   <i type="logical" name="LVEL"> F  </i>
   <i type="int" name="KINTER">     0</i>
   <i name="CSHIFT">      0.10000000</i>
   <i name="OMEGAMAX">     -1.00000000</i>
   <i name="DEG_THRESHOLD">      0.00200000</i>
   <i name="RTIME">     -0.10000000</i>
   <i name="WPLASMAI">      0.00000000</i>
   <v name="DFIELD">      0.00000000      0.00000000      0.00000000</v>
   <v name="WPLASMA">      0.00000000      0.00000000      0.00000000      0.00000000      0.00000000      0.00000000      0.00000000      0.00000000      0.00000000</v>
  </separator>
  <separator name="orbital magnetization" >
   <i type="logical" name="NUCIND"> F  </i>
   <v name="MAGPOS">      0.00000000      0.00000000      0.00000000</v>
   <i type="logical" name="LNICSALL"> T  </i>
   <i type="logical" name="ORBITALMAG"> F  </i>
   <i type="logical" name="LMAGBLOCH"> F  </i>
   <i type="logical" name="LCHIMAG"> F  </i>
   <i type="logical" name="LGAUGE"> T  </i>
   <i type="int" name="MAGATOM">     0</i>
   <v name="MAGDIPOL">      0.00000000      0.00000000      0.00000000</v>
   <v name="AVECCONST">      0.00000000      0.00000000      0.00000000</v>
  </separator>
  <separator name="response functions" >
   <i type="logical" name="LADDER"> F  </i>
   <i type="logical" name="LRPAFORCE"> F  </i>
   <i type="logical" name="LFXC"> F  </i>
   <i type="logical" name="LHARTREE"> T  </i>
   <i type="int" name="IBSE">     0</i>
   <v type="int" name="KPOINT">    -1     0     0     0</v>
   <i type="logical" name="LTCTE"> F  </i>
   <i type="logical" name="LTETE"> F  </i>
   <i type="logical" name="LTRIPLET"> F  </i>
   <i type="logical" name="LFXCEPS"> F  </i>
   <i type="logical" name="LFXHEG"> F  </i>
   <i type="int" name="NATURALO">     2</i>
   <i type="logical" name="L2ORDER"> F  </i>
   <i type="logical" name="LMP2LT"> F  </i>
   <i type="logical" name="LUSEW"> F  </i>
   <i name="ENCUTGW">     -2.00000000</i>
   <i name="ENCUTGWSOFT">     -2.00000000</i>
   <i name="ENCUTLF">     -1.00000000</i>
   <i type="int" name="LMAXMP2">    -1</i>
   <i name="SCISSOR">      0.00000000</i>
   <i type="int" name="NOMEGA">     0</i>
   <i type="int" name="NOMEGAR">     0</i>
   <i type="int" name="NBANDSGW">    -1</i>
   <i type="int" name="NBANDSO">    -1</i>
   <i type="int" name="NBANDSV">    -1</i>
   <i type="int" name="NELM">   100</i>
   <i type="int" name="NELMHF">     1</i>
   <i type="int" name="DIM">     3</i>
   <i type="int" name="ANTIRES">     0</i>
   <i name="OMEGAMAX">    -30.00000000</i>
   <i name="OMEGAMIN">    -30.00000000</i>
   <i name="OMEGATL">   -200.00000000</i>
   <i type="int" name="OMEGAGRID">   140</i>
   <i name="CSHIFT">     -0.10000000</i>
   <i type="logical" name="SELFENERGY"> F  </i>
   <i type="logical" name="LSPECTRAL"> F  </i>
   <i type="logical" name="LSPECTRALGW"> F  </i>
   <i type="logical" name="LSINGLES"> F  </i>
   <i type="logical" name="LFERMIGW"> F  </i>
   <i type="logical" name="ODDONLYGW"> F  </i>
   <i type="logical" name="EVENONLYGW"> F  </i>
   <i type="int" name="NKREDLFX">     1</i>
   <i type="int" name="NKREDLFY">     1</i>
   <i type="int" name="NKREDLFZ">     1</i>
   <i type="int" name="MAXMEM">  2800</i>
   <i type="int" name="TELESCOPE">     0</i>
   <i type="int" name="TAUPAR">     1</i>
   <i type="int" name="OMEGAPAR">    -1</i>
   <i name="LAMBDA">      1.00000000</i>
  </separator>
  <separator name="External order field" >
   <i name="OFIELD_KAPPA">      0.00000000</i>
   <v name="OFIELD_K">      0.00000000      0.00000000      0.00000000</v>
   <i name="OFIELD_Q6_NEAR">      0.00000000</i>
   <i name="OFIELD_Q6_FAR">      0.00000000</i>
   <i name="OFIELD_A">      0.00000000</i>
  </separator>
 </parameters>
 <atominfo>
  <atoms>       2 </atoms>
  <types>       2 </types>
  <array name="atoms" >
   <dimension dim="1">ion</dimension>
   <field type="string">element</field>
   <field type="int">atomtype</field>
   <set>
    <rc><c>Al</c><c>   1</c></rc>
    <rc><c>P </c><c>   2</c></rc>
   </set>
  </array>
  <array name="atomtypes" >
   <dimension dim="1">type</dimension>
   <field type="int">atomspertype</field>
   <field type="string">element</field>
   <field>mass</field>
   <field>valence</field>
   <field type="string">pseudopotential</field>
   <set>
    <rc><c>   1</c><c>Al</c><c>     26.98100000</c><c>      3.00000000</c><c>  PAW_PBE Al 04Jan2001                  </c></rc>
    <rc><c>   1</c><c>P </c><c>     30.97400000</c><c>      5.00000000</c><c>  PAW_PBE P 06Sep2000                   </c></rc>
   </set>
  </array>
 </atominfo>
 <structure name="initialpos" >
  <crystal>
   <varray name="basis" >
    <v>       0.00000000       2.75279623       2.75279623 </v>
    <v>       2.75279623       0.00000000       2.75279623 </v>
    <v>       2.75279623       2.75279623       0.00000000 </v>
   </varray>
   <i name="volume">     41.72075819 </i>
   <varray name="rec_basis" >
    <v>      -0.18163349       0.18163349       0.18163349 </v>
    <v>       0.18163349      -0.18163349       0.18163349 </v>
    <v>       0.18163349       0.18163349      -0.18163349 </v>
   </varray>
  </crystal>
  <varray name="positions" >
   <v>       0.00000000       0.00000000       0.00000000 </v>
   <v>       0.25000000       0.25000000       0.25000000 </v>
  </varray>
 </structure>
 <calculation>
  <scstep>
   <time name="dav">    0.05    0.05</time>
   <time name="total">    0.10    0.10</time>
   <energy>
    <i name="alphaZ">      3.63030981 </i>
    <i name="ewald">   -235.31950059 </i>
    <i name="hartreedc">    -19.87972382 </i>
    <i name="XCdc">    -23.24686708 </i>
    <i name="pawpsdc">    205.96018703 </i>
    <i name="pawaedc">   -165.84420087 </i>
    <i name="eentropy">     -0.00009899 </i>
    <i name="bandstr">     18.21396288 </i>
    <i name="atom">    229.58028278 </i>
    <i name="e_fr_energy">     13.09435114 </i>
    <i name="e_wo_entrp">     13.09445013 </i>
    <i name="e_0_energy">     13.09440064 </i>
   </energy>
  </scstep>
  <scstep>
   <time name="dav">    0.07    0.07</time>
   <time name="total">    0.07    0.07</time>
   <energy>
    <i name="e_fr_energy">    -10.18748728 </i>
    <i name="e_wo_entrp">    -10.18748728 </i>
    <i name="e_0_energy">    -10.18748728 </i>
   </energy>
  </scstep>
  <scstep>
   <time name="dav">    0.06    0.06</time>
   <time name="total">    0.06    0.06</time>
   <energy>
    <i name="e_fr_energy">    -10.71605882 </i>
    <i name="e_wo_entrp">    -10.71605882 </i>
    <i name="e_0_energy">    -10.71605882 </i>
   </energy>
  </scstep>
  <scstep>
   <time name="dav">    0.08    0.08</time>
   <time name="total">    0.08    0.08</time>
   <energy>
    <i name="e_fr_energy">    -10.71913921 </i>
    <i name="e_wo_entrp">    -10.71913921 </i>
    <i name="e_0_energy">    -10.71913921 </i>
   </energy>
  </scstep>
  <scstep>
   <time name="dav">    0.07    0.07</time>
   <time name="total">    0.07    0.07</time>
   <energy>
    <i name="e_fr_energy">    -10.71914205 </i>
    <i name="e_wo_entrp">    -10.71914205 </i>
    <i name="e_0_energy">    -10.71914205 </i>
   </energy>
  </scstep>
  <scstep>
   <time name="dav">    0.09    0.09</time>
   <time name="total">    0.09    0.09</time>
   <energy>
    <i name="e_fr_energy">    -10.71914210 </i>
    <i name="e_wo_entrp">    -10.71914210 </i>
    <i name="e_0_energy">    -10.71914210 </i>
   </energy>
  </scstep>
  <scstep>
   <time name="dav">    0.07    0.07</time>
   <time name="total">    0.07    0.07</time>
   <energy>
    <i name="e_fr_energy">    -10.71914210 </i>
    <i name="e_wo_entrp">    -10.71914210 </i>
    <i name="e_0_energy">    -10.71914210 </i>
   </energy>
  </scstep>
  <scstep>
   <time name="dav">    0.08    0.08</time>
   <time name="total">    0.09    0.09</time>
   <energy>
    <i name="e_fr_energy">    -10.71914210 </i>
    <i name="e_wo_entrp">    -10.71914210 </i>
    <i name="e_0_energy">    -10.71914210 </i>
   </energy>
  </scstep>
  <scstep>
   <time name="dav">    0.06    0.06</time>
   <time name="total">    0.12    0.12</time>
   <energy>
    <i name="e_fr_energy">    -10.49982344 </i>
    <i name="e_wo_entrp">    -10.49982344 </i>
    <i name="e_0_energy">    -10.49982344 </i>
   </energy>
  </scstep>
  <scstep>
   <time name="dav">    0.06    0.06</time>
   <time name="total">    0.12    0.12</time>
   <energy>
    <i name="e_fr_energy">    -10.38151179 </i>
    <i name="e_wo_entrp">    -10.38151179 </i>
    <i name="e_0_energy">    -10.38151179 </i>
   </energy>
  </scstep>
  <scstep>
   <time name="dav">    0.06    0.06</time>
   <time name="total">    0.12    0.12</time>
   <energy>
    <i name="e_fr_energy">    -10.37754408 </i>
    <i name="e_wo_entrp">    -10.37754408 </i>
    <i name="e_0_energy">    -10.37754408 </i>
   </energy>
  </scstep>
  <scstep>
   <time name="dav">    0.07    0.07</time>
   <time name="total">    0.13    0.13</time>
   <energy>
    <i name="e_fr_energy">    -10.37744912 </i>
    <i name="e_wo_entrp">    -10.37744912 </i>
    <i name="e_0_energy">    -10.37744912 </i>
   </energy>
  </scstep>
  <scstep>
   <time name="dav">    0.06    0.06</time>
   <time name="total">    0.12    0.12</time>
   <energy>
    <i name="e_fr_energy">    -10.37741941 </i>
    <i name="e_wo_entrp">    -10.37741941 </i>
    <i name="e_0_energy">    -10.37741941 </i>
   </energy>
  </scstep>
  <scstep>
   <time name="dav">    0.06    0.06</time>
   <time name="total">    0.12    0.12</time>
   <energy>
    <i name="e_fr_energy">    -10.37742057 </i>
    <i name="e_wo_entrp">    -10.37742057 </i>
    <i name="e_0_energy">    -10.37742057 </i>
   </energy>
  </scstep>
  <scstep>
   <time name="dav">    0.07    0.07</time>
   <time name="total">    0.12    0.12</time>
   <energy>
    <i name="e_fr_energy">    -10.37742121 </i>
    <i name="e_wo_entrp">    -10.37742121 </i>
    <i name="e_0_energy">    -10.37742121 </i>
   </energy>
  </scstep>
  <scstep>
   <time name="dav">    0.06    0.06</time>
   <time name="total">    0.11    0.11</time>
   <energy>
    <i name="e_fr_energy">    -10.37742016 </i>
    <i name="e_wo_entrp">    -10.37742016 </i>
    <i name="e_0_energy">    -10.37742016 </i>
   </energy>
  </scstep>
  <scstep>
   <time name="dav">    0.06    0.06</time>
   <time name="total">    0.11    0.11</time>
   <energy>
    <i name="alphaZ">      3.63030981 </i>
    <i name="ewald">   -235.31950059 </i>
    <i name="hartreedc">    -25.44114793 </i>
    <i name="XCdc">    -22.49033041 </i>
    <i name="pawpsdc">    740.28923719 </i>
    <i name="pawaedc">   -700.38363683 </i>
    <i name="eentropy">      0.00000000 </i>
    <i name="bandstr">     -0.24263420 </i>
    <i name="atom">    229.58028278 </i>
    <i name="e_fr_energy">    -10.37742018 </i>
    <i name="e_wo_entrp">    -10.37742018 </i>
    <i name="e_0_energy">    -10.37742018 </i>
   </energy>
  </scstep>
  <structure>
   <crystal>
    <varray name="basis" >
     <v>       0.00000000       2.75279623       2.75279623 </v>
     <v>       2.75279623       0.00000000       2.75279623 </v>
     <v>       2.75279623       2.75279623       0.00000000 </v>
    </varray>
    <i name="volume">     41.72075819 </i>
    <varray name="rec_basis" >
     <v>      -0.18163349       0.18163349       0.18163349 </v>
     <v>       0.18163349      -0.18163349       0.18163349 </v>
     <v>       0.18163349       0.18163349      -0.18163349 </v>
    </varray>
   </crystal>
   <varray name="positions" >
    <v>       0.00000000       0.00000000       0.00000000 </v>
    <v>       0.25000000       0.25000000       0.25000000 </v>
   </varray>
  </structure>
  <varray name="forces" >
   <v>       0.00000000       0.00000000       0.00000000 </v>
   <v>      -0.00000000      -0.00000000      -0.00000000 </v>
  </varray>
  <varray name="stress" >
   <v>      -0.00262513      -0.00000000      -0.00000000 </v>
   <v>       0.00000000      -0.00262513      -0.00000000 </v>
   <v>       0.00000000      -0.00000000      -0.00262513 </v>
  </varray>
  <energy>
   <i name="e_fr_energy">    -10.37742018 </i>
   <i name="e_wo_entrp">    -10.37742018 </i>
   <i name="e_0_energy">      0.00000000 </i>
  </energy>
  <time name="totalsc">    2.03    2.03</time>
  <eigenvalues>
   <array>
    <dimension dim="1">band</dimension>
    <dimension dim="2">kpoint</dimension>
    <dimension dim="3">spin</dimension>
    <field>eigene</field>
    <field>occ</field>
    <set>
     <set comment="spin 1">
      <set comment="kpoint 1">
       <r>   -7.0098    1.0000 </r>
       <r>    4.3542    1.0000 </r>
       <r>    4.3542    1.0000 </r>
       <r>    4.3542    1.0000 </r>
       <r>    7.4475    0.0000 </r>
       <r>    8.8809    0.0000 </r>
       <r>    8.8809    0.0000 </r>
       <r>    8.8809    0.0000 </r>
      </set>
      <set comment="kpoint 2">
       <r>   -6.8771    1.0000 </r>
       <r>    3.3427    1.0000 </r>
       <r>    4.2371    1.0000 </r>
       <r>    4.2371    1.0000 </r>
       <r>    7.9056    0.0000 </r>
       <r>    9.1077    0.0000 </r>
       <r>    9.1077    0.0000 </r>
       <r>    9.2067    0.0000 </r>
      </set>
      <set comment="kpoint 3">
       <r>   -6.4982    1.0000 </r>
       <r>    1.6422    1.0000 </r>
       <r>    3.9855    1.0000 </r>
       <r>    3.9855    1.0000 </r>
       <r>    7.6806    0.0000 </r>
       <r>    9.4446    0.0000 </r>
       <r>    9.4446    0.0000 </r>
       <r>   10.7151    0.0000 </r>
      </set>
      <set comment="kpoint 4">
       <r>   -5.9527    1.0000 </r>
       <r>    0.0911    1.0000 </r>
       <r>    3.7529    1.0000 </r>
       <r>    3.7529    1.0000 </r>
       <r>    7.3124    0.0000 </r>
       <r>    9.3805    0.0000 </r>
       <r>    9.3805    0.0000 </r>
       <r>   12.1548    0.0000 </r>
      </set>
      <set comment="kpoint 5">
       <r>   -5.4715    1.0000 </r>
       <r>   -0.9169    1.0000 </r>
       <r>    3.6223    1.0000 </r>
       <r>    3.6223    1.0000 </r>
       <r>    7.1031    0.0000 </r>
       <r>    9.1957    0.0000 </r>
       <r>    9.1957    0.0000 </r>
       <r>   12.5500    0.0000 </r>
      </set>
      <set comment="kpoint 6">
       <r>   -6.8327    1.0000 </r>
       <r>    3.4207    1.0000 </r>
       <r>    3.9791    1.0000 </r>
       <r>    3.9791    1.0000 </r>
       <r>    8.3608    0.0000 </r>
       <r>    8.4228    0.0000 </r>
       <r>    9.5006    0.0000 </r>
       <r>    9.5006    0.0000 </r>
      </set>
      <set comment="kpoint 7">
       <r>   -6.5345    1.0000 </r>
       <r>    2.1127    1.0000 </r>
       <r>    3.6577    1.0000 </r>
       <r>    3.7535    1.0000 </r>
       <r>    8.1347    0.0000 </r>
       <r>    8.8880    0.0000 </r>
       <r>   10.0393    0.0000 </r>
       <r>   10.1196    0.0000 </r>
      </set>
      <set comment="kpoint 8">
       <r>   -6.0373    1.0000 </r>
       <r>    0.5891    1.0000 </r>
       <r>    3.4025    1.0000 </r>
       <r>    3.4300    1.0000 </r>
       <r>    7.8720    0.0000 </r>
       <r>    9.1830    0.0000 </r>
       <r>   10.1085    0.0000 </r>
       <r>   10.5606    0.0000 </r>
      </set>
      <set comment="kpoint 9">
       <r>   -5.5059    1.0000 </r>
       <r>   -0.5898    1.0000 </r>
       <r>    3.0612    1.0000 </r>
       <r>    3.3634    1.0000 </r>
       <r>    7.6819    0.0000 </r>
       <r>    9.0184    0.0000 </r>
       <r>    9.8125    0.0000 </r>
       <r>   11.8947    0.0000 </r>
      </set>
      <set comment="kpoint 10">
       <r>   -5.3143    1.0000 </r>
       <r>   -0.9466    1.0000 </r>
       <r>    2.8518    1.0000 </r>
       <r>    3.4668    1.0000 </r>
       <r>    7.6769    0.0000 </r>
       <r>    9.0067    0.0000 </r>
       <r>    9.5839    0.0000 </r>
       <r>   12.7662    0.0000 </r>
      </set>
      <set comment="kpoint 11">
       <r>   -5.6709    1.0000 </r>
       <r>   -0.2553    1.0000 </r>
       <r>    2.8333    1.0000 </r>
       <r>    3.7091    1.0000 </r>
       <r>    7.8609    0.0000 </r>
       <r>    9.2470    0.0000 </r>
       <r>    9.5505    0.0000 </r>
       <r>   12.0558    0.0000 </r>
      </set>
      <set comment="kpoint 12">
       <r>   -6.2210    1.0000 </r>
       <r>    1.0724    1.0000 </r>
       <r>    3.0441    1.0000 </r>
       <r>    4.0154    1.0000 </r>
       <r>    8.1900    0.0000 </r>
       <r>    9.4624    0.0000 </r>
       <r>    9.5315    0.0000 </r>
       <r>   10.7950    0.0000 </r>
      </set>
      <set comment="kpoint 13">
       <r>   -6.6616    1.0000 </r>
       <r>    2.4864    1.0000 </r>
       <r>    3.5589    1.0000 </r>
       <r>    4.2474    1.0000 </r>
       <r>    8.3853    0.0000 </r>
       <r>    8.9624    0.0000 </r>
       <r>    9.2181    0.0000 </r>
       <r>   10.1433    0.0000 </r>
      </set>
      <set comment="kpoint 14">
       <r>   -6.3235    1.0000 </r>
       <r>    1.8676    1.0000 </r>
       <r>    3.2695    1.0000 </r>
       <r>    3.2695    1.0000 </r>
       <r>    7.4474    0.0000 </r>
       <r>    8.6902    0.0000 </r>
       <r>   10.9269    0.0000 </r>
       <r>   10.9269    0.0000 </r>
      </set>
      <set comment="kpoint 15">
       <r>   -5.9026    1.0000 </r>
       <r>    0.8494    1.0000 </r>
       <r>    2.8087    1.0000 </r>
       <r>    2.9980    1.0000 </r>
       <r>    7.3266    0.0000 </r>
       <r>    8.5129    0.0000 </r>
       <r>   10.8983    0.0000 </r>
       <r>   11.4012    0.0000 </r>
      </set>
      <set comment="kpoint 16">
       <r>   -5.3924    1.0000 </r>
       <r>   -0.1813    1.0000 </r>
       <r>    2.1918    1.0000 </r>
       <r>    2.9176    1.0000 </r>
       <r>    7.3074    0.0000 </r>
       <r>    9.3939    0.0000 </r>
       <r>   10.7180    0.0000 </r>
       <r>   11.1865    0.0000 </r>
      </set>
      <set comment="kpoint 17">
       <r>   -5.0825    1.0000 </r>
       <r>   -0.7057    1.0000 </r>
       <r>    1.7249    1.0000 </r>
       <r>    3.0425    1.0000 </r>
       <r>    7.4291    0.0000 </r>
       <r>   10.0152    0.0000 </r>
       <r>   10.8243    0.0000 </r>
       <r>   11.5688    0.0000 </r>
      </set>
      <set comment="kpoint 18">
       <r>   -5.2689    1.0000 </r>
       <r>   -0.3817    1.0000 </r>
       <r>    1.5777    1.0000 </r>
       <r>    3.3424    1.0000 </r>
       <r>    7.8214    0.0000 </r>
       <r>   10.0840    0.0000 </r>
       <r>   10.5587    0.0000 </r>
       <r>   11.8276    0.0000 </r>
      </set>
      <set comment="kpoint 19">
       <r>   -5.7587    1.0000 </r>
       <r>    0.4168    1.0000 </r>
       <r>    1.9664    1.0000 </r>
       <r>    3.7279    1.0000 </r>
       <r>    8.3586    0.0000 </r>
       <r>    9.9879    0.0000 </r>
       <r>   10.1632    0.0000 </r>
       <r>   10.6003    0.0000 </r>
      </set>
      <set comment="kpoint 20">
       <r>   -5.5743    1.0000 </r>
       <r>    0.3780    1.0000 </r>
       <r>    2.6697    1.0000 </r>
       <r>    2.6697    1.0000 </r>
       <r>    6.5939    0.0000 </r>
       <r>    7.5456    0.0000 </r>
       <r>   12.6904    0.0000 </r>
       <r>   12.6904    0.0000 </r>
      </set>
      <set comment="kpoint 21">
       <r>   -5.1504    1.0000 </r>
       <r>   -0.2715    1.0000 </r>
       <r>    2.0965    1.0000 </r>
       <r>    2.5380    1.0000 </r>
       <r>    6.5851    0.0000 </r>
       <r>    7.6673    0.0000 </r>
       <r>   12.7603    0.0000 </r>
       <r>   12.9824    0.0000 </r>
      </set>
      <set comment="kpoint 22">
       <r>   -4.8508    1.0000 </r>
       <r>   -0.5892    1.0000 </r>
       <r>    1.2836    1.0000 </r>
       <r>    2.6283    1.0000 </r>
       <r>    6.7708    0.0000 </r>
       <r>    9.0175    0.0000 </r>
       <r>   12.5186    0.0000 </r>
       <r>   12.5815    0.0000 </r>
      </set>
      <set comment="kpoint 23">
       <r>   -4.9132    1.0000 </r>
       <r>   -0.4721    1.0000 </r>
       <r>    0.9282    1.0000 </r>
       <r>    2.9218    1.0000 </r>
       <r>    7.1932    0.0000 </r>
       <r>   10.6824    0.0000 </r>
       <r>   11.8552    0.0000 </r>
       <r>   12.0391    0.0000 </r>
      </set>
      <set comment="kpoint 24">
       <r>   -4.8764    1.0000 </r>
       <r>   -0.6992    1.0000 </r>
       <r>    2.3444    1.0000 </r>
       <r>    2.3444    1.0000 </r>
       <r>    6.0569    0.0000 </r>
       <r>    6.9055    0.0000 </r>
       <r>   14.5836    0.0000 </r>
       <r>   14.5836    0.0000 </r>
      </set>
      <set comment="kpoint 25">
       <r>   -4.7464    1.0000 </r>
       <r>   -0.8038    1.0000 </r>
       <r>    1.8448    1.0000 </r>
       <r>    2.3766    1.0000 </r>
       <r>    6.2944    0.0000 </r>
       <r>    7.3920    0.0000 </r>
       <r>   14.3404    0.0000 </r>
       <r>   14.6280    0.0000 </r>
      </set>
      <set comment="kpoint 26">
       <r>   -6.1736    1.0000 </r>
       <r>    1.2782    1.0000 </r>
       <r>    2.7913    1.0000 </r>
       <r>    3.6444    1.0000 </r>
       <r>    8.2195    0.0000 </r>
       <r>    9.0431    0.0000 </r>
       <r>    9.8851    0.0000 </r>
       <r>   10.6785    0.0000 </r>
      </set>
      <set comment="kpoint 27">
       <r>   -5.6608    1.0000 </r>
       <r>    0.1740    1.0000 </r>
       <r>    2.2573    1.0000 </r>
       <r>    3.3352    1.0000 </r>
       <r>    8.2703    0.0000 </r>
       <r>    9.1530    0.0000 </r>
       <r>   10.1026    0.0000 </r>
       <r>   10.9945    0.0000 </r>
      </set>
      <set comment="kpoint 28">
       <r>   -5.2188    1.0000 </r>
       <r>   -0.6597    1.0000 </r>
       <r>    2.0638    1.0000 </r>
       <r>    3.0870    1.0000 </r>
       <r>    8.2154    0.0000 </r>
       <r>    8.8308    0.0000 </r>
       <r>   10.7741    0.0000 </r>
       <r>   11.7354    0.0000 </r>
      </set>
      <set comment="kpoint 29">
       <r>   -5.4698    1.0000 </r>
       <r>    0.1815    1.0000 </r>
       <r>    2.1707    1.0000 </r>
       <r>    2.7184    1.0000 </r>
       <r>    7.4159    0.0000 </r>
       <r>    8.3137    0.0000 </r>
       <r>   10.8516    0.0000 </r>
       <r>   12.5990    0.0000 </r>
      </set>
      <set comment="kpoint 30">
       <r>   -5.0410    1.0000 </r>
       <r>   -0.4003    1.0000 </r>
       <r>    1.5666    1.0000 </r>
       <r>    2.4735    1.0000 </r>
       <r>    7.6557    0.0000 </r>
       <r>    9.2587    0.0000 </r>
       <r>   10.5107    0.0000 </r>
       <r>   12.8089    0.0000 </r>
      </set>
      <set comment="kpoint 31">
       <r>   -4.9126    1.0000 </r>
       <r>   -0.5381    1.0000 </r>
       <r>    1.1950    1.0000 </r>
       <r>    2.5680    1.0000 </r>
       <r>    7.9281    0.0000 </r>
       <r>    9.8318    0.0000 </r>
       <r>   11.1765    0.0000 </r>
       <r>   11.9933    0.0000 </r>
      </set>
      <set comment="kpoint 32">
       <r>   -5.2044    1.0000 </r>
       <r>   -0.2053    1.0000 </r>
       <r>    1.3639    1.0000 </r>
       <r>    2.9243    1.0000 </r>
       <r>    8.3721    0.0000 </r>
       <r>    9.6009    0.0000 </r>
       <r>   10.1435    0.0000 </r>
       <r>   12.2406    0.0000 </r>
      </set>
      <set comment="kpoint 33">
       <r>   -4.8412    1.0000 </r>
       <r>   -0.6156    1.0000 </r>
       <r>    1.8807    1.0000 </r>
       <r>    2.0839    1.0000 </r>
       <r>    6.9048    0.0000 </r>
       <r>    7.7789    0.0000 </r>
       <r>   12.4874    0.0000 </r>
       <r>   14.2745    0.0000 </r>
      </set>
      <set comment="kpoint 34">
       <r>   -4.7415    1.0000 </r>
       <r>   -0.5978    1.0000 </r>
       <r>    1.2198    1.0000 </r>
       <r>    2.1579    1.0000 </r>
       <r>    7.4003    0.0000 </r>
       <r>    9.0827    0.0000 </r>
       <r>   11.9332    0.0000 </r>
       <r>   12.3093    0.0000 </r>
      </set>
      <set comment="kpoint 35">
       <r>   -4.7742    1.0000 </r>
       <r>   -0.4862    1.0000 </r>
       <r>    1.2302    1.0000 </r>
       <r>    1.8899    1.0000 </r>
       <r>    8.5181    0.0000 </r>
       <r>    9.7597    0.0000 </r>
       <r>   10.1845    0.0000 </r>
       <r>   11.7707    0.0000 </r>
      </set>
     </set>
    </set>
   </array>
  </eigenvalues>
  <separator name="orbital magnetization" >
   <v name="MAGDIPOLOUT">      0.00000000      0.00000000      0.00000000</v>
  </separator>
  <dos>
   <i name="efermi">      4.99920041 </i>
   <total>
    <array>
     <dimension dim="1">gridpoints</dimension>
     <dimension dim="2">spin</dimension>
     <field>energy</field>
     <field>total</field>
     <field>integrated</field>
     <set>
      <set comment="spin 1">
       <r>    -8.0917     0.0000     0.0000 </r>
       <r>    -5.7115     0.0138     0.4966 </r>
       <r>    -3.3314     0.0000     2.0000 </r>
       <r>    -0.9512     0.0072     2.0171 </r>
       <r>     1.4290     0.0277     4.2497 </r>
       <r>     3.8091     0.0461     7.7723 </r>
       <r>     6.1893     0.0000     8.0165 </r>
       <r>     8.5694     0.0553    10.3457 </r>
       <r>    10.9496     0.0415    13.9149 </r>
       <r>    13.3298     0.0000    15.8354 </r>
       <r>    15.7099     0.0000    16.0000 </r>
      </set>
     </set>
    </array>
   </total>
   <partial>
    <array>
     <dimension dim="1">gridpoints</dimension>
     <dimension dim="2">spin</dimension>
     <dimension dim="3">ion</dimension>
     <field>energy</field>
     <field>  s  </field>
     <field>  p  </field>
     <field>  d  </field>
     <set>
      <set comment="ion 1">
       <set comment="spin 1">
        <r>    -8.0917     0.0000     0.0000     0.0000 </r>
        <r>    -5.7115     0.0008     0.0002     0.0000 </r>
        <r>    -3.3314     0.0000     0.0000     0.0000 </r>
        <r>    -0.9512     0.0009     0.0002     0.0000 </r>
        <r>     1.4290     0.0006     0.0019     0.0000 </r>
        <r>     3.8091     0.0003     0.0027     0.0000 </r>
        <r>     6.1893     0.0000     0.0000     0.0000 </r>
        <r>     8.5694     0.0024     0.0008     0.0000 </r>
        <r>    10.9496     0.0008     0.0057     0.0000 </r>
        <r>    13.3298     0.0000     0.0000     0.0000 </r>
        <r>    15.7099     0.0000     0.0000     0.0000 </r>
       </set>
      </set>
      <set comment="ion 2">
       <set comment="spin 1">
        <r>    -8.0917     0.0000     0.0000     0.0000 </r>
        <r>    -5.7115     0.0058     0.0001     0.0000 </r>
        <r>    -3.3314     0.0000     0.0000     0.0000 </r>
        <r>    -0.9512     0.0001     0.0012     0.0000 </r>
        <r>     1.4290     0.0001     0.0066     0.0000 </r>
        <r>     3.8091     0.0003     0.0166     0.0000 </r>
        <r>     6.1893     0.0000     0.0000     0.0000 </r>
        <r>     8.5694     0.0011     0.0068     0.0000 </r>
        <r>    10.9496     0.0013     0.0042     0.0000 </r>
        <r>    13.3298     0.0000     0.0000     0.0000 </r>
        <r>    15.7099     0.0000     0.0000     0.0000 </r>
       </set>
      </set>
     </set>
    </array>
   </partial>
  </dos>
  <projected>
   <eigenvalues>
    <array>
     <dimension dim="1">band</dimension>
     <dimension dim="2">kpoint</dimension>
     <dimension dim="3">spin</dimension>
     <field>eigene</field>
     <field>occ</field>
     <set>
      <set comment="spin 1">
       <set comment="kpoint 1">
        <r>   -7.0098    1.0000 </r>
        <r>    4.3542    1.0000 </r>
        <r>    4.3542    1.0000 </r>
        <r>    4.3542    1.0000 </r>
        <r>    7.4475    0.0000 </r>
        <r>    8.8809    0.0000 </r>
        <r>    8.8809    0.0000 </r>
        <r>    8.8809    0.0000 </r>
       </set>
       <set comment="kpoint 2">
        <r>   -6.8771    1.0000 </r>
        <r>    3.3427    1.0000 </r>
        <r>    4.2371    1.0000 </r>
        <r>    4.2371    1.0000 </r>
        <r>    7.9056    0.0000 </r>
        <r>    9.1077    0.0000 </r>
        <r>    9.1077    0.0000 </r>
        <r>    9.2067    0.0000 </r>
       </set>
       <set comment="kpoint 3">
        <r>   -6.4982    1.0000 </r>
        <r>    1.6422    1.0000 </r>
        <r>    3.9855    1.0000 </r>
        <r>    3.9855    1.0000 </r>
        <r>    7.6806    0.0000 </r>
        <r>    9.4446    0.0000 </r>
        <r>    9.4446    0.0000 </r>
        <r>   10.7151    0.0000 </r>
       </set>
       <set comment="kpoint 4">
        <r>   -5.9527    1.0000 </r>
        <r>    0.0911    1.0000 </r>
        <r>    3.7529    1.0000 </r>
        <r>    3.7529    1.0000 </r>
        <r>    7.3124    0.0000 </r>
        <r>    9.3805    0.0000 </r>
        <r>    9.3805    0.0000 </r>
        <r>   12.1548    0.0000 </r>
       </set>
       <set comment="kpoint 5">
        <r>   -5.4715    1.0000 </r>
        <r>   -0.9169    1.0000 </r>
        <r>    3.6223    1.0000 </r>
        <r>    3.6223    1.0000 </r>
        <r>    7.1031    0.0000 </r>
        <r>    9.1957    0.0000 </r>
        <r>    9.1957    0.0000 </r>
        <r>   12.5500    0.0000 </r>
       </set>
       <set comment="kpoint 6">
        <r>   -6.8327    1.0000 </r>
        <r>    3.4207    1.0000 </r>
        <r>    3.9791    1.0000 </r>
        <r>    3.9791    1.0000 </r>
        <r>    8.3608    0.0000 </r>
        <r>    8.4228    0.0000 </r>
        <r>    9.5006    0.0000 </r>
        <r>    9.5006    0.0000 </r>
       </set>
       <set comment="kpoint 7">
        <r>   -6.5345    1.0000 </r>
        <r>    2.1127    1.0000 </r>
        <r>    3.6577    1.0000 </r>
        <r>    3.7535    1.0000 </r>
        <r>    8.1347    0.0000 </r>
        <r>    8.8880    0.0000 </r>
        <r>   10.0393    0.0000 </r>
        <r>   10.1196    0.0000 </r>
       </set>
       <set comment="kpoint 8">
        <r>   -6.0373    1.0000 </r>
        <r>    0.5891    1.0000 </r>
        <r>    3.4025    1.0000 </r>
        <r>    3.4300    1.0000 </r>
        <r>    7.8720    0.0000 </r>
        <r>    9.1830    0.0000 </r>
        <r>   10.1085    0.0000 </r>
        <r>   10.5606    0.0000 </r>
       </set>
       <set comment="kpoint 9">
        <r>   -5.5059    1.0000 </r>
        <r>   -0.5898    1.0000 </r>
        <r>    3.0612    1.0000 </r>
        <r>    3.3634    1.0000 </r>
        <r>    7.6819    0.0000 </r>
        <r>    9.0184    0.0000 </r>
        <r>    9.8125    0.0000 </r>
        <r>   11.8947    0.0000 </r>
       </set>
       <set comment="kpoint 10">
        <r>   -5.3143    1.0000 </r>
        <r>   -0.9466    1.0000 </r>
        <r>    2.8518    1.0000 </r>
        <r>    3.4668    1.0000 </r>
        <r>    7.6769    0.0000 </r>
        <r>    9.0067    0.0000 </r>
        <r>    9.5839    0.0000 </r>
        <r>   12.7662    0.0000 </r>
       </set>
       <set comment="kpoint 11">
        <r>   -5.6709    1.0000 </r>
        <r>   -0.2553    1.0000 </r>
        <r>    2.8333    1.0000 </r>
        <r>    3.7091    1.0000 </r>
        <r>    7.8609    0.0000 </r>
        <r>    9.2470    0.0000 </r>
        <r>    9.5505    0.0000 </r>
        <r>   12.0558    0.0000 </r>
       </set>
       <set comment="kpoint 12">
        <r>   -6.2210    1.0000 </r>
        <r>    1.0724    1.0000 </r>
        <r>    3.0441    1.0000 </r>
        <r>    4.0154    1.0000 </r>
        <r>    8.1900    0.0000 </r>
        <r>    9.4624    0.0000 </r>
        <r>    9.5315    0.0000 </r>
        <r>   10.7950    0.0000 </r>
       </set>
       <set comment="kpoint 13">
        <r>   -6.6616    1.0000 </r>
        <r>    2.4864    1.0000 </r>
        <r>    3.5589    1.0000 </r>
        <r>    4.2474    1.0000 </r>
        <r>    8.3853    0.0000 </r>
        <r>    8.9624    0.0000 </r>
        <r>    9.2181    0.0000 </r>
        <r>   10.1433    0.0000 </r>
       </set>
       <set comment="kpoint 14">
        <r>   -6.3235    1.0000 </r>
        <r>    1.8676    1.0000 </r>
        <r>    3.2695    1.0000 </r>
        <r>    3.2695    1.0000 </r>
        <r>    7.4474    0.0000 </r>
        <r>    8.6902    0.0000 </r>
        <r>   10.9269    0.0000 </r>
        <r>   10.9269    0.0000 </r>
       </set>
       <set comment="kpoint 15">
        <r>   -5.9026    1.0000 </r>
        <r>    0.8494    1.0000 </r>
        <r>    2.8087    1.0000 </r>
        <r>    2.9980    1.0000 </r>
        <r>    7.3266    0.0000 </r>
        <r>    8.5129    0.0000 </r>
        <r>   10.8983    0.0000 </r>
        <r>   11.4012    0.0000 </r>
       </set>
       <set comment="kpoint 16">
        <r>   -5.3924    1.0000 </r>
        <r>   -0.1813    1.0000 </r>
        <r>    2.1918    1.0000 </r>
        <r>    2.9176    1.0000 </r>
        <r>    7.3074    0.0000 </r>
        <r>    9.3939    0.0000 </r>
        <r>   10.7180    0.0000 </r>
        <r>   11.1865    0.0000 </r>
       </set>
       <set comment="kpoint 17">
        <r>   -5.0825    1.0000 </r>
        <r>   -0.7057    1.0000 </r>
        <r>    1.7249    1.0000 </r>
        <r>    3.0425    1.0000 </r>
        <r>    7.4291    0.0000 </r>
        <r>   10.0152    0.0000 </r>
        <r>   10.8243    0.0000 </r>
        <r>   11.5688    0.0000 </r>
       </set>
       <set comment="kpoint 18">
        <r>   -5.2689    1.0000 </r>
        <r>   -0.3817    1.0000 </r>
        <r>    1.5777    1.0000 </r>
        <r>    3.3424    1.0000 </r>
        <r>    7.8214    0.0000 </r>
        <r>   10.0840    0.0000 </r>
        <r>   10.5587    0.0000 </r>
        <r>   11.8276    0.0000 </r>
       </set>
       <set comment="kpoint 19">
        <r>   -5.7587    1.0000 </r>
        <r>    0.4168    1.0000 </r>
        <r>    1.9664    1.0000 </r>
        <r>    3.7279    1.0000 </r>
        <r>    8.3586    0.0000 </r>
        <r>    9.9879    0.0000 </r>
        <r>   10.1632    0.0000 </r>
        <r>   10.6003    0.0000 </r>
       </set>
       <set comment="kpoint 20">
        <r>   -5.5743    1.0000 </r>
        <r>    0.3780    1.0000 </r>
        <r>    2.6697    1.0000 </r>
        <r>    2.6697    1.0000 </r>
        <r>    6.5939    0.0000 </r>
        <r>    7.5456    0.0000 </r>
        <r>   12.6904    0.0000 </r>
        <r>   12.6904    0.0000 </r>
       </set>
       <set comment="kpoint 21">
        <r>   -5.1504    1.0000 </r>
        <r>   -0.2715    1.0000 </r>
        <r>    2.0965    1.0000 </r>
        <r>    2.5380    1.0000 </r>
        <r>    6.5851    0.0000 </r>
        <r>    7.6673    0.0000 </r>
        <r>   12.7603    0.0000 </r>
        <r>   12.9824    0.0000 </r>
       </set>
       <set comment="kpoint 22">
        <r>   -4.8508    1.0000 </r>
        <r>   -0.5892    1.0000 </r>
        <r>    1.2836    1.0000 </r>
        <r>    2.6283    1.0000 </r>
        <r>    6.7708    0.0000 </r>
        <r>    9.0175    0.0000 </r>
        <r>   12.5186    0.0000 </r>
        <r>   12.5815    0.0000 </r>
       </set>
       <set comment="kpoint 23">
        <r>   -4.9132    1.0000 </r>
        <r>   -0.4721    1.0000 </r>
        <r>    0.9282    1.0000 </r>
        <r>    2.9218    1.0000 </r>
        <r>    7.1932    0.0000 </r>
        <r>   10.6824    0.0000 </r>
        <r>   11.8552    0.0000 </r>
        <r>   12.0391    0.0000 </r>
       </set>
       <set comment="kpoint 24">
        <r>   -4.8764    1.0000 </r>
        <r>   -0.6992    1.0000 </r>
        <r>    2.3444    1.0000 </r>
        <r>    2.3444    1.0000 </r>
        <r>    6.0569    0.0000 </r>
        <r>    6.9055    0.0000 </r>
        <r>   14.5836    0.0000 </r>
        <r>   14.5836    0.0000 </r>
       </set>
       <set comment="kpoint 25">
        <r>   -4.7464    1.0000 </r>
        <r>   -0.8038    1.0000 </r>
        <r>    1.8448    1.0000 </r>
        <r>    2.3766    1.0000 </r>
        <r>    6.2944    0.0000 </r>
        <r>    7.3920    0.0000 </r>
        <r>   14.3404    0.0000 </r>
        <r>   14.6280    0.0000 </r>
       </set>
       <set comment="kpoint 26">
        <r>   -6.1736    1.0000 </r>
        <r>    1.2782    1.0000 </r>
        <r>    2.7913    1.0000 </r>
        <r>    3.6444    1.0000 </r>
        <r>    8.2195    0.0000 </r>
        <r>    9.0431    0.0000 </r>
        <r>    9.8851    0.0000 </r>
        <r>   10.6785    0.0000 </r>
       </set>
       <set comment="kpoint 27">
        <r>   -5.6608    1.0000 </r>
        <r>    0.1740    1.0000 </r>
        <r>    2.2573    1.0000 </r>
        <r>    3.3352    1.0000 </r>
        <r>    8.2703    0.0000 </r>
        <r>    9.1530    0.0000 </r>
        <r>   10.1026    0.0000 </r>
        <r>   10.9945    0.0000 </r>
       </set>
       <set comment="kpoint 28">
        <r>   -5.2188    1.0000 </r>
        <r>   -0.6597    1.0000 </r>
        <r>    2.0638    1.0000 </r>
        <r>    3.0870    1.0000 </r>
        <r>    8.2154    0.0000 </r>
        <r>    8.8308    0.0000 </r>
        <r>   10.7741    0.0000 </r>
        <r>   11.7354    0.0000 </r>
       </set>
       <set comment="kpoint 29">
        <r>   -5.4698    1.0000 </r>
        <r>    0.1815    1.0000 </r>
        <r>    2.1707    1.0000 </r>
        <r>    2.7184    1.0000 </r>
        <r>    7.4159    0.0000 </r>
        <r>    8.3137    0.0000 </r>
        <r>   10.8516    0.0000 </r>
        <r>   12.5990    0.0000 </r>
       </set>
       <set comment="kpoint 30">
        <r>   -5.0410    1.0000 </r>
        <r>   -0.4003    1.0000 </r>
        <r>    1.5666    1.0000 </r>
        <r>    2.4735    1.0000 </r>
        <r>    7.6557    0.0000 </r>
        <r>    9.2587    0.0000 </r>
        <r>   10.5107    0.0000 </r>
        <r>   12.8089    0.0000 </r>
       </set>
       <set comment="kpoint 31">
        <r>   -4.9126    1.0000 </r>
        <r>   -0.5381    1.0000 </r>
        <r>    1.1950    1.0000 </r>
        <r>    2.5680    1.0000 </r>
        <r>    7.9281    0.0000 </r>
        <r>    9.8318    0.0000 </r>
        <r>   11.1765    0.0000 </r>
        <r>   11.9933    0.0000 </r>
       </set>
       <set comment="kpoint 32">
        <r>   -5.2044    1.0000 </r>
        <r>   -0.2053    1.0000 </r>
        <r>    1.3639    1.0000 </r>
        <r>    2.9243    1.0000 </r>
        <r>    8.3721    0.0000 </r>
        <r>    9.6009    0.0000 </r>
        <r>   10.1435    0.0000 </r>
        <r>   12.2406    0.0000 </r>
       </set>
       <set comment="kpoint 33">
        <r>   -4.8412    1.0000 </r>
        <r>   -0.6156    1.0000 </r>
        <r>    1.8807    1.0000 </r>
        <r>    2.0839    1.0000 </r>
        <r>    6.9048    0.0000 </r>
        <r>    7.7789    0.0000 </r>
        <r>   12.4874    0.0000 </r>
        <r>   14.2745    0.0000 </r>
       </set>
       <set comment="kpoint 34">
        <r>   -4.7415    1.0000 </r>
        <r>   -0.5978    1.0000 </r>
        <r>    1.2198    1.0000 </r>
        <r>    2.1579    1.0000 </r>
        <r>    7.4003    0.0000 </r>
        <r>    9.0827    0.0000 </r>
        <r>   11.9332    0.0000 </r>
        <r>   12.3093    0.0000 </r>
       </set>
       <set comment="kpoint 35">
        <r>   -4.7742    1.0000 </r>
        <r>   -0.4862    1.0000 </r>
        <r>    1.2302    1.0000 </r>
        <r>    1.8899    1.0000 </r>
        <r>    8.5181    0.0000 </r>
        <r>    9.7597    0.0000 </r>
        <r>   10.1845    0.0000 </r>
        <r>   11.7707    0.0000 </r>
       </set>
      </set>
     </set>
    </array>
   </eigenvalues>
   <array>
    <dimension dim="1">ion</dimension>
    <dimension dim="2">band</dimension>
    <dimension dim="3">kpoint</dimension>
    <dimension dim="4">spin</dimension>
    <field>  s  </field>
    <field>  p  </field>
    <field>  d  </field>
    <set>
     <set comment="spin1">
      <set comment="kpoint 1">
       <set comment="band 1">
        <r>  0.0877  0.0000  0.0000 </r>
        <r>  0.3626  0.0000  0.0000 </r>
       </set>
       <set comment="band 2">
        <r>  0.0000  0.0346  0.0000 </r>
        <r>  0.0000  0.4119  0.0000 </r>
       </set>
       <set comment="band 3">
        <r>  0.0000  0.0346  0.0000 </r>
        <r>  0.0000  0.4119  0.0000 </r>
       </set>
       <set comment="band 4">
        <r>  0.0000  0.0346  0.0000 </r>
        <r>  0.0000  0.4119  0.0000 </r>
       </set>
       <set comment="band 5">
        <r>  0.1820  0.0000  0.0000 </r>
        <r>  0.3560  0.0000  0.0000 </r>
       </set>
       <set comment="band 6">
        <r>  0.0000  0.2180  0.0000 </r>
        <r>  0.0000  0.0190  0.0000 </r>
       </set>
       <set comment="band 7">
        <r>  0.0000  0.2180  0.0000 </r>
        <r>  0.0000  0.0190  0.0000 </r>
       </set>
       <set comment="band 8">
        <r>  0.0000  0.2180  0.0000 </r>
        <r>  0.0000  0.0190  0.0000 </r>
       </set>
      </set>
      <set comment="kpoint 2">
       <set comment="band 1">
        <r>  0.0849  0.0013  0.0000 </r>
        <r>  0.3667  0.0009  0.0000 </r>
       </set>
       <set comment="band 2">
        <r>  0.0342  0.0383  0.0000 </r>
        <r>  0.0546  0.3061  0.0000 </r>
       </set>
       <set comment="band 3">
        <r>  0.0000  0.0421  0.0000 </r>
        <r>  0.0000  0.4007  0.0000 </r>
       </set>
       <set comment="band 4">
        <r>  0.0000  0.0421  0.0000 </r>
        <r>  0.0000  0.4007  0.0000 </r>
       </set>
       <set comment="band 5">
        <r>  0.1433  0.0454  0.0000 </r>
        <r>  0.2406  0.0392  0.0000 </r>
       </set>
       <set comment="band 6">
        <r>  0.0000  0.2116  0.0000 </r>
        <r>  0.0000  0.0308  0.0000 </r>
       </set>
       <set comment="band 7">
        <r>  0.0000  0.2116  0.0000 </r>
        <r>  0.0000  0.0308  0.0000 </r>
       </set>
       <set comment="band 8">
        <r>  0.0397  0.1337  0.0000 </r>
        <r>  0.0511  0.0911  0.0000 </r>
       </set>
      </set>
      <set comment="kpoint 3">
       <set comment="band 1">
        <r>  0.0762  0.0052  0.0000 </r>
        <r>  0.3810  0.0030  0.0000 </r>
       </set>
       <set comment="band 2">
        <r>  0.0648  0.0408  0.0000 </r>
        <r>  0.0748  0.2253  0.0000 </r>
       </set>
       <set comment="band 3">
        <r>  0.0000  0.0558  0.0000 </r>
        <r>  0.0000  0.3820  0.0000 </r>
       </set>
       <set comment="band 4">
        <r>  0.0000  0.0558  0.0000 </r>
        <r>  0.0000  0.3820  0.0000 </r>
       </set>
       <set comment="band 5">
        <r>  0.1430  0.0640  0.0000 </r>
        <r>  0.1449  0.0178  0.0000 </r>
       </set>
       <set comment="band 6">
        <r>  0.0000  0.1860  0.0000 </r>
        <r>  0.0000  0.0432  0.0000 </r>
       </set>
       <set comment="band 7">
        <r>  0.0000  0.1860  0.0000 </r>
        <r>  0.0000  0.0432  0.0000 </r>
       </set>
       <set comment="band 8">
        <r>  0.0612  0.0578  0.0000 </r>
        <r>  0.0909  0.2092  0.0000 </r>
       </set>
      </set>
      <set comment="kpoint 4">
       <set comment="band 1">
        <r>  0.0611  0.0107  0.0000 </r>
        <r>  0.4111  0.0040  0.0000 </r>
       </set>
       <set comment="band 2">
        <r>  0.0910  0.0384  0.0000 </r>
        <r>  0.0573  0.1861  0.0000 </r>
       </set>
       <set comment="band 3">
        <r>  0.0000  0.0663  0.0000 </r>
        <r>  0.0000  0.3699  0.0000 </r>
       </set>
       <set comment="band 4">
        <r>  0.0000  0.0663  0.0000 </r>
        <r>  0.0000  0.3699  0.0000 </r>
       </set>
       <set comment="band 5">
        <r>  0.1692  0.0374  0.0000 </r>
        <r>  0.1357  0.0133  0.0000 </r>
       </set>
       <set comment="band 6">
        <r>  0.0000  0.1442  0.0000 </r>
        <r>  0.0000  0.0352  0.0000 </r>
       </set>
       <set comment="band 7">
        <r>  0.0000  0.1442  0.0000 </r>
        <r>  0.0000  0.0352  0.0000 </r>
       </set>
       <set comment="band 8">
        <r>  0.0217  0.0419  0.0000 </r>
        <r>  0.0391  0.2484  0.0000 </r>
       </set>
      </set>
      <set comment="kpoint 5">
       <set comment="band 1">
        <r>  0.0432  0.0157  0.0000 </r>
        <r>  0.4536  0.0015  0.0000 </r>
       </set>
       <set comment="band 2">
        <r>  0.1139  0.0345  0.0000 </r>
        <r>  0.0192  0.1722  0.0000 </r>
       </set>
       <set comment="band 3">
        <r>  0.0000  0.0717  0.0000 </r>
        <r>  0.0000  0.3649  0.0000 </r>
       </set>
       <set comment="band 4">
        <r>  0.0000  0.0717  0.0000 </r>
        <r>  0.0000  0.3649  0.0000 </r>
       </set>
       <set comment="band 5">
        <r>  0.1839  0.0215  0.0000 </r>
        <r>  0.1369  0.0117  0.0000 </r>
       </set>
       <set comment="band 6">
        <r>  0.0000  0.1244  0.0000 </r>
        <r>  0.0000  0.0279  0.0000 </r>
       </set>
       <set comment="band 7">
        <r>  0.0000  0.1244  0.0000 </r>
        <r>  0.0000  0.0279  0.0000 </r>
       </set>
       <set comment="band 8">
        <r>  0.0003  0.0214  0.0000 </r>
        <r>  0.0053  0.1733  0.0000 </r>
       </set>
      </set>
      <set comment="kpoint 6">
       <set comment="band 1">
        <r>  0.0839  0.0018  0.0000 </r>
        <r>  0.3681  0.0012  0.0000 </r>
       </set>
       <set comment="band 2">
        <r>  0.0472  0.0263  0.0000 </r>
        <r>  0.0752  0.3047  0.0000 </r>
       </set>
       <set comment="band 3">
        <r>  0.0000  0.0520  0.0000 </r>
        <r>  0.0000  0.3761  0.0000 </r>
       </set>
       <set comment="band 4">
        <r>  0.0000  0.0520  0.0000 </r>
        <r>  0.0000  0.3761  0.0000 </r>
       </set>
       <set comment="band 5">
        <r>  0.1475  0.0638  0.0000 </r>
        <r>  0.0795  0.0989  0.0000 </r>
       </set>
       <set comment="band 6">
        <r>  0.0296  0.1257  0.0000 </r>
        <r>  0.1824  0.0326  0.0000 </r>
       </set>
       <set comment="band 7">
        <r>  0.0000  0.1997  0.0000 </r>
        <r>  0.0000  0.0566  0.0000 </r>
       </set>
       <set comment="band 8">
        <r>  0.0000  0.1997  0.0000 </r>
        <r>  0.0000  0.0566  0.0000 </r>
       </set>
      </set>
      <set comment="kpoint 7">
       <set comment="band 1">
        <r>  0.0770  0.0049  0.0000 </r>
        <r>  0.3791  0.0030  0.0000 </r>
       </set>
       <set comment="band 2">
        <r>  0.0668  0.0343  0.0000 </r>
        <r>  0.0860  0.2402  0.0000 </r>
       </set>
       <set comment="band 3">
        <r>  0.0000  0.0642  0.0000 </r>
        <r>  0.0000  0.3546  0.0000 </r>
       </set>
       <set comment="band 4">
        <r>  0.0109  0.0552  0.0000 </r>
        <r>  0.0092  0.3528  0.0000 </r>
       </set>
       <set comment="band 5">
        <r>  0.0832  0.1049  0.0000 </r>
        <r>  0.0410  0.0537  0.0000 </r>
       </set>
       <set comment="band 6">
        <r>  0.0802  0.1039  0.0000 </r>
        <r>  0.1271  0.0806  0.0000 </r>
       </set>
       <set comment="band 7">
        <r>  0.0000  0.1808  0.0000 </r>
        <r>  0.0000  0.0761  0.0000 </r>
       </set>
       <set comment="band 8">
        <r>  0.0125  0.1013  0.0000 </r>
        <r>  0.0154  0.0953  0.0000 </r>
       </set>
      </set>
      <set comment="kpoint 8">
       <set comment="band 1">
        <r>  0.0636  0.0100  0.0000 </r>
        <r>  0.4041  0.0045  0.0000 </r>
       </set>
       <set comment="band 2">
        <r>  0.0894  0.0365  0.0000 </r>
        <r>  0.0709  0.1955  0.0000 </r>
       </set>
       <set comment="band 3">
        <r>  0.0212  0.0598  0.0000 </r>
        <r>  0.0139  0.3259  0.0000 </r>
       </set>
       <set comment="band 4">
        <r>  0.0000  0.0727  0.0000 </r>
        <r>  0.0000  0.3448  0.0000 </r>
       </set>
       <set comment="band 5">
        <r>  0.1158  0.0564  0.0000 </r>
        <r>  0.0763  0.0659  0.0000 </r>
       </set>
       <set comment="band 6">
        <r>  0.0362  0.1277  0.0000 </r>
        <r>  0.0389  0.0511  0.0000 </r>
       </set>
       <set comment="band 7">
        <r>  0.0000  0.1445  0.0000 </r>
        <r>  0.0000  0.0668  0.0000 </r>
       </set>
       <set comment="band 8">
        <r>  0.0227  0.0515  0.0000 </r>
        <r>  0.0270  0.1020  0.0000 </r>
       </set>
      </set>
      <set comment="kpoint 9">
       <set comment="band 1">
        <r>  0.0447  0.0157  0.0000 </r>
        <r>  0.4461  0.0030  0.0000 </r>
       </set>
       <set comment="band 2">
        <r>  0.1138  0.0338  0.0000 </r>
        <r>  0.0326  0.1752  0.0000 </r>
       </set>
       <set comment="band 3">
        <r>  0.0265  0.0632  0.0000 </r>
        <r>  0.0163  0.3070  0.0000 </r>
       </set>
       <set comment="band 4">
        <r>  0.0000  0.0766  0.0000 </r>
        <r>  0.0000  0.3450  0.0000 </r>
       </set>
       <set comment="band 5">
        <r>  0.1360  0.0364  0.0000 </r>
        <r>  0.0890  0.0624  0.0000 </r>
       </set>
       <set comment="band 6">
        <r>  0.0204  0.0985  0.0000 </r>
        <r>  0.0214  0.0468  0.0000 </r>
       </set>
       <set comment="band 7">
        <r>  0.0000  0.1215  0.0000 </r>
        <r>  0.0000  0.0505  0.0000 </r>
       </set>
       <set comment="band 8">
        <r>  0.0185  0.0652  0.0000 </r>
        <r>  0.0152  0.1534  0.0000 </r>
       </set>
      </set>
      <set comment="kpoint 10">
       <set comment="band 1">
        <r>  0.0361  0.0178  0.0000 </r>
        <r>  0.4677  0.0011  0.0000 </r>
       </set>
       <set comment="band 2">
        <r>  0.1238  0.0324  0.0000 </r>
        <r>  0.0116  0.1719  0.0000 </r>
       </set>
       <set comment="band 3">
        <r>  0.0270  0.0654  0.0000 </r>
        <r>  0.0161  0.2971  0.0000 </r>
       </set>
       <set comment="band 4">
        <r>  0.0000  0.0756  0.0000 </r>
        <r>  0.0000  0.3532  0.0000 </r>
       </set>
       <set comment="band 5">
        <r>  0.1489  0.0306  0.0000 </r>
        <r>  0.0977  0.0607  0.0000 </r>
       </set>
       <set comment="band 6">
        <r>  0.0108  0.0937  0.0000 </r>
        <r>  0.0150  0.0489  0.0000 </r>
       </set>
       <set comment="band 7">
        <r>  0.0000  0.1186  0.0000 </r>
        <r>  0.0000  0.0403  0.0000 </r>
       </set>
       <set comment="band 8">
        <r>  0.0097  0.0394  0.0000 </r>
        <r>  0.0007  0.2252  0.0000 </r>
       </set>
      </set>
      <set comment="kpoint 11">
       <set comment="band 1">
        <r>  0.0513  0.0138  0.0000 </r>
        <r>  0.4309  0.0039  0.0000 </r>
       </set>
       <set comment="band 2">
        <r>  0.1055  0.0353  0.0000 </r>
        <r>  0.0469  0.1793  0.0000 </r>
       </set>
       <set comment="band 3">
        <r>  0.0238  0.0667  0.0000 </r>
        <r>  0.0130  0.2956  0.0000 </r>
       </set>
       <set comment="band 4">
        <r>  0.0000  0.0695  0.0000 </r>
        <r>  0.0000  0.3679  0.0000 </r>
       </set>
       <set comment="band 5">
        <r>  0.1498  0.0384  0.0000 </r>
        <r>  0.1031  0.0626  0.0000 </r>
       </set>
       <set comment="band 6">
        <r>  0.0039  0.1037  0.0000 </r>
        <r>  0.0110  0.0524  0.0000 </r>
       </set>
       <set comment="band 7">
        <r>  0.0000  0.1363  0.0000 </r>
        <r>  0.0000  0.0361  0.0000 </r>
       </set>
       <set comment="band 8">
        <r>  0.0296  0.0486  0.0000 </r>
        <r>  0.0269  0.2210  0.0000 </r>
       </set>
      </set>
      <set comment="kpoint 12">
       <set comment="band 1">
        <r>  0.0689  0.0080  0.0000 </r>
        <r>  0.3939  0.0041  0.0000 </r>
       </set>
       <set comment="band 2">
        <r>  0.0806  0.0372  0.0000 </r>
        <r>  0.0795  0.2068  0.0000 </r>
       </set>
       <set comment="band 3">
        <r>  0.0170  0.0671  0.0000 </r>
        <r>  0.0067  0.3052  0.0000 </r>
       </set>
       <set comment="band 4">
        <r>  0.0000  0.0581  0.0000 </r>
        <r>  0.0000  0.3878  0.0000 </r>
       </set>
       <set comment="band 5">
        <r>  0.1374  0.0589  0.0000 </r>
        <r>  0.1092  0.0668  0.0000 </r>
       </set>
       <set comment="band 6">
        <r>  0.0108  0.1324  0.0000 </r>
        <r>  0.0202  0.0610  0.0000 </r>
       </set>
       <set comment="band 7">
        <r>  0.0000  0.1849  0.0000 </r>
        <r>  0.0000  0.0365  0.0000 </r>
       </set>
       <set comment="band 8">
        <r>  0.0442  0.0458  0.0000 </r>
        <r>  0.0516  0.1825  0.0000 </r>
       </set>
      </set>
      <set comment="kpoint 13">
       <set comment="band 1">
        <r>  0.0801  0.0035  0.0000 </r>
        <r>  0.3742  0.0022  0.0000 </r>
       </set>
       <set comment="band 2">
        <r>  0.0570  0.0354  0.0000 </r>
        <r>  0.0825  0.2562  0.0000 </r>
       </set>
       <set comment="band 3">
        <r>  0.0067  0.0622  0.0000 </r>
        <r>  0.0002  0.3380  0.0000 </r>
       </set>
       <set comment="band 4">
        <r>  0.0000  0.0452  0.0000 </r>
        <r>  0.0000  0.4050  0.0000 </r>
       </set>
       <set comment="band 5">
        <r>  0.1392  0.0624  0.0000 </r>
        <r>  0.1749  0.0726  0.0000 </r>
       </set>
       <set comment="band 6">
        <r>  0.0264  0.1395  0.0000 </r>
        <r>  0.0206  0.0648  0.0000 </r>
       </set>
       <set comment="band 7">
        <r>  0.0000  0.2138  0.0000 </r>
        <r>  0.0000  0.0269  0.0000 </r>
       </set>
       <set comment="band 8">
        <r>  0.0231  0.1201  0.0000 </r>
        <r>  0.0426  0.1340  0.0000 </r>
       </set>
      </set>
      <set comment="kpoint 14">
       <set comment="band 1">
        <r>  0.0715  0.0073  0.0000 </r>
        <r>  0.3875  0.0042  0.0000 </r>
       </set>
       <set comment="band 2">
        <r>  0.0951  0.0193  0.0000 </r>
        <r>  0.1087  0.2261  0.0000 </r>
       </set>
       <set comment="band 3">
        <r>  0.0000  0.0741  0.0000 </r>
        <r>  0.0000  0.3320  0.0000 </r>
       </set>
       <set comment="band 4">
        <r>  0.0000  0.0741  0.0000 </r>
        <r>  0.0000  0.3320  0.0000 </r>
       </set>
       <set comment="band 5">
        <r>  0.0668  0.1216  0.0000 </r>
        <r>  0.0117  0.0111  0.0000 </r>
       </set>
       <set comment="band 6">
        <r>  0.0806  0.0154  0.0000 </r>
        <r>  0.0785  0.1001  0.0000 </r>
       </set>
       <set comment="band 7">
        <r>  0.0000  0.1742  0.0000 </r>
        <r>  0.0000  0.1051  0.0000 </r>
       </set>
       <set comment="band 8">
        <r>  0.0000  0.1742  0.0000 </r>
        <r>  0.0000  0.1051  0.0000 </r>
       </set>
      </set>
      <set comment="kpoint 15">
       <set comment="band 1">
        <r>  0.0589  0.0120  0.0000 </r>
        <r>  0.4097  0.0054  0.0000 </r>
       </set>
       <set comment="band 2">
        <r>  0.1130  0.0223  0.0000 </r>
        <r>  0.0924  0.1986  0.0000 </r>
       </set>
       <set comment="band 3">
        <r>  0.0145  0.0734  0.0000 </r>
        <r>  0.0056  0.2985  0.0000 </r>
       </set>
       <set comment="band 4">
        <r>  0.0000  0.0810  0.0000 </r>
        <r>  0.0000  0.3210  0.0000 </r>
       </set>
       <set comment="band 5">
        <r>  0.0559  0.0941  0.0000 </r>
        <r>  0.0229  0.0277  0.0000 </r>
       </set>
       <set comment="band 6">
        <r>  0.0803  0.0142  0.0000 </r>
        <r>  0.0348  0.0876  0.0000 </r>
       </set>
       <set comment="band 7">
        <r>  0.0291  0.1176  0.0000 </r>
        <r>  0.0485  0.1000  0.0000 </r>
       </set>
       <set comment="band 8">
        <r>  0.0000  0.1480  0.0000 </r>
        <r>  0.0000  0.1041  0.0000 </r>
       </set>
      </set>
      <set comment="kpoint 16">
       <set comment="band 1">
        <r>  0.0395  0.0179  0.0000 </r>
        <r>  0.4498  0.0044  0.0000 </r>
       </set>
       <set comment="band 2">
        <r>  0.1342  0.0245  0.0000 </r>
        <r>  0.0506  0.1790  0.0000 </r>
       </set>
       <set comment="band 3">
        <r>  0.0304  0.0670  0.0000 </r>
        <r>  0.0127  0.2634  0.0000 </r>
       </set>
       <set comment="band 4">
        <r>  0.0000  0.0841  0.0000 </r>
        <r>  0.0000  0.3198  0.0000 </r>
       </set>
       <set comment="band 5">
        <r>  0.0591  0.0598  0.0000 </r>
        <r>  0.0337  0.0332  0.0000 </r>
       </set>
       <set comment="band 6">
        <r>  0.0763  0.0120  0.0000 </r>
        <r>  0.0075  0.1490  0.0000 </r>
       </set>
       <set comment="band 7">
        <r>  0.0354  0.1232  0.0000 </r>
        <r>  0.0651  0.0716  0.0000 </r>
       </set>
       <set comment="band 8">
        <r>  0.0000  0.1175  0.0000 </r>
        <r>  0.0000  0.0835  0.0000 </r>
       </set>
      </set>
      <set comment="kpoint 17">
       <set comment="band 1">
        <r>  0.0242  0.0216  0.0000 </r>
        <r>  0.4860  0.0016  0.0000 </r>
       </set>
       <set comment="band 2">
        <r>  0.1505  0.0246  0.0000 </r>
        <r>  0.0118  0.1727  0.0000 </r>
       </set>
       <set comment="band 3">
        <r>  0.0357  0.0636  0.0000 </r>
        <r>  0.0159  0.2460  0.0000 </r>
       </set>
       <set comment="band 4">
        <r>  0.0000  0.0835  0.0000 </r>
        <r>  0.0000  0.3272  0.0000 </r>
       </set>
       <set comment="band 5">
        <r>  0.0690  0.0499  0.0000 </r>
        <r>  0.0372  0.0338  0.0000 </r>
       </set>
       <set comment="band 6">
        <r>  0.0685  0.0272  0.0000 </r>
        <r>  0.0336  0.1677  0.0000 </r>
       </set>
       <set comment="band 7">
        <r>  0.0000  0.1092  0.0000 </r>
        <r>  0.0000  0.0720  0.0000 </r>
       </set>
       <set comment="band 8">
        <r>  0.0368  0.0872  0.0000 </r>
        <r>  0.0224  0.1170  0.0000 </r>
       </set>
      </set>
      <set comment="kpoint 18">
       <set comment="band 1">
        <r>  0.0343  0.0189  0.0000 </r>
        <r>  0.4644  0.0032  0.0000 </r>
       </set>
       <set comment="band 2">
        <r>  0.1395  0.0271  0.0000 </r>
        <r>  0.0347  0.1741  0.0000 </r>
       </set>
       <set comment="band 3">
        <r>  0.0325  0.0653  0.0000 </r>
        <r>  0.0106  0.2428  0.0000 </r>
       </set>
       <set comment="band 4">
        <r>  0.0000  0.0786  0.0000 </r>
        <r>  0.0000  0.3430  0.0000 </r>
       </set>
       <set comment="band 5">
        <r>  0.0796  0.0535  0.0000 </r>
        <r>  0.0407  0.0387  0.0000 </r>
       </set>
       <set comment="band 6">
        <r>  0.0506  0.0531  0.0000 </r>
        <r>  0.0456  0.1382  0.0000 </r>
       </set>
       <set comment="band 7">
        <r>  0.0000  0.1246  0.0000 </r>
        <r>  0.0000  0.0698  0.0000 </r>
       </set>
       <set comment="band 8">
        <r>  0.0593  0.0300  0.0000 </r>
        <r>  0.0168  0.2306  0.0000 </r>
       </set>
      </set>
      <set comment="kpoint 19">
       <set comment="band 1">
        <r>  0.0545  0.0131  0.0000 </r>
        <r>  0.4214  0.0049  0.0000 </r>
       </set>
       <set comment="band 2">
        <r>  0.1112  0.0302  0.0000 </r>
        <r>  0.0770  0.1868  0.0000 </r>
       </set>
       <set comment="band 3">
        <r>  0.0265  0.0699  0.0000 </r>
        <r>  0.0014  0.2563  0.0000 </r>
       </set>
       <set comment="band 4">
        <r>  0.0000  0.0692  0.0000 </r>
        <r>  0.0000  0.3667  0.0000 </r>
       </set>
       <set comment="band 5">
        <r>  0.1005  0.0660  0.0000 </r>
        <r>  0.0525  0.0530  0.0000 </r>
       </set>
       <set comment="band 6">
        <r>  0.0146  0.0952  0.0000 </r>
        <r>  0.0461  0.0919  0.0000 </r>
       </set>
       <set comment="band 7">
        <r>  0.0000  0.1713  0.0000 </r>
        <r>  0.0000  0.0632  0.0000 </r>
       </set>
       <set comment="band 8">
        <r>  0.0764  0.0233  0.0000 </r>
        <r>  0.0455  0.2032  0.0000 </r>
       </set>
      </set>
      <set comment="kpoint 20">
       <set comment="band 1">
        <r>  0.0466  0.0165  0.0000 </r>
        <r>  0.4305  0.0059  0.0000 </r>
       </set>
       <set comment="band 2">
        <r>  0.1421  0.0120  0.0000 </r>
        <r>  0.0846  0.1882  0.0000 </r>
       </set>
       <set comment="band 3">
        <r>  0.0000  0.0868  0.0000 </r>
        <r>  0.0000  0.3079  0.0000 </r>
       </set>
       <set comment="band 4">
        <r>  0.0000  0.0868  0.0000 </r>
        <r>  0.0000  0.3079  0.0000 </r>
       </set>
       <set comment="band 5">
        <r>  0.0439  0.0875  0.0000 </r>
        <r>  0.0321  0.0035  0.0000 </r>
       </set>
       <set comment="band 6">
        <r>  0.0979  0.0026  0.0000 </r>
        <r>  0.0191  0.0550  0.0000 </r>
       </set>
       <set comment="band 7">
        <r>  0.0000  0.1556  0.0000 </r>
        <r>  0.0000  0.1355  0.0000 </r>
       </set>
       <set comment="band 8">
        <r>  0.0000  0.1556  0.0000 </r>
        <r>  0.0000  0.1355  0.0000 </r>
       </set>
      </set>
      <set comment="kpoint 21">
       <set comment="band 1">
        <r>  0.0268  0.0224  0.0000 </r>
        <r>  0.4692  0.0043  0.0000 </r>
       </set>
       <set comment="band 2">
        <r>  0.1695  0.0085  0.0000 </r>
        <r>  0.0495  0.1782  0.0000 </r>
       </set>
       <set comment="band 3">
        <r>  0.0082  0.0838  0.0000 </r>
        <r>  0.0007  0.2715  0.0000 </r>
       </set>
       <set comment="band 4">
        <r>  0.0000  0.0896  0.0000 </r>
        <r>  0.0000  0.3043  0.0000 </r>
       </set>
       <set comment="band 5">
        <r>  0.0292  0.0656  0.0000 </r>
        <r>  0.0388  0.0186  0.0000 </r>
       </set>
       <set comment="band 6">
        <r>  0.1048  0.0143  0.0000 </r>
        <r>  0.0085  0.0724  0.0000 </r>
       </set>
       <set comment="band 7">
        <r>  0.0328  0.1114  0.0000 </r>
        <r>  0.0357  0.1507  0.0000 </r>
       </set>
       <set comment="band 8">
        <r>  0.0000  0.1239  0.0000 </r>
        <r>  0.0000  0.1193  0.0000 </r>
       </set>
      </set>
      <set comment="kpoint 22">
       <set comment="band 1">
        <r>  0.0092  0.0265  0.0000 </r>
        <r>  0.5083  0.0011  0.0000 </r>
       </set>
       <set comment="band 2">
        <r>  0.1986  0.0062  0.0000 </r>
        <r>  0.0112  0.1733  0.0000 </r>
       </set>
       <set comment="band 3">
        <r>  0.0087  0.0777  0.0000 </r>
        <r>  0.0016  0.2371  0.0000 </r>
       </set>
       <set comment="band 4">
        <r>  0.0000  0.0893  0.0000 </r>
        <r>  0.0000  0.3085  0.0000 </r>
       </set>
       <set comment="band 5">
        <r>  0.0498  0.0457  0.0000 </r>
        <r>  0.0349  0.0250  0.0000 </r>
       </set>
       <set comment="band 6">
        <r>  0.0732  0.0264  0.0000 </r>
        <r>  0.0040  0.1265  0.0000 </r>
       </set>
       <set comment="band 7">
        <r>  0.0480  0.0919  0.0000 </r>
        <r>  0.0402  0.1470  0.0000 </r>
       </set>
       <set comment="band 8">
        <r>  0.0000  0.1056  0.0000 </r>
        <r>  0.0000  0.1099  0.0000 </r>
       </set>
      </set>
      <set comment="kpoint 23">
       <set comment="band 1">
        <r>  0.0143  0.0245  0.0000 </r>
        <r>  0.5025  0.0013  0.0000 </r>
       </set>
       <set comment="band 2">
        <r>  0.1978  0.0107  0.0000 </r>
        <r>  0.0142  0.1699  0.0000 </r>
       </set>
       <set comment="band 3">
        <r>  0.0051  0.0739  0.0000 </r>
        <r>  0.0017  0.2296  0.0000 </r>
       </set>
       <set comment="band 4">
        <r>  0.0000  0.0858  0.0000 </r>
        <r>  0.0000  0.3211  0.0000 </r>
       </set>
       <set comment="band 5">
        <r>  0.0616  0.0457  0.0000 </r>
        <r>  0.0336  0.0291  0.0000 </r>
       </set>
       <set comment="band 6">
        <r>  0.0540  0.0042  0.0000 </r>
        <r>  0.0037  0.2018  0.0000 </r>
       </set>
       <set comment="band 7">
        <r>  0.0000  0.1154  0.0000 </r>
        <r>  0.0000  0.1144  0.0000 </r>
       </set>
       <set comment="band 8">
        <r>  0.0779  0.0327  0.0000 </r>
        <r>  0.0032  0.1991  0.0000 </r>
       </set>
      </set>
      <set comment="kpoint 24">
       <set comment="band 1">
        <r>  0.0092  0.0277  0.0000 </r>
        <r>  0.5015  0.0018  0.0000 </r>
       </set>
       <set comment="band 2">
        <r>  0.1909  0.0023  0.0000 </r>
        <r>  0.0179  0.1763  0.0000 </r>
       </set>
       <set comment="band 3">
        <r>  0.0000  0.0923  0.0000 </r>
        <r>  0.0000  0.2980  0.0000 </r>
       </set>
       <set comment="band 4">
        <r>  0.0000  0.0923  0.0000 </r>
        <r>  0.0000  0.2980  0.0000 </r>
       </set>
       <set comment="band 5">
        <r>  0.0055  0.0678  0.0000 </r>
        <r>  0.0512  0.0003  0.0000 </r>
       </set>
       <set comment="band 6">
        <r>  0.1406  0.0001  0.0000 </r>
        <r>  0.0019  0.0455  0.0000 </r>
       </set>
       <set comment="band 7">
        <r>  0.0000  0.1527  0.0000 </r>
        <r>  0.0000  0.1749  0.0000 </r>
       </set>
       <set comment="band 8">
        <r>  0.0000  0.1527  0.0000 </r>
        <r>  0.0000  0.1749  0.0000 </r>
       </set>
      </set>
      <set comment="kpoint 25">
       <set comment="band 1">
        <r>  0.0002  0.0297  0.0000 </r>
        <r>  0.5210  0.0000  0.0000 </r>
       </set>
       <set comment="band 2">
        <r>  0.2052  0.0004  0.0000 </r>
        <r>  0.0001  0.1756  0.0000 </r>
       </set>
       <set comment="band 3">
        <r>  0.0049  0.0866  0.0000 </r>
        <r>  0.0006  0.2631  0.0000 </r>
       </set>
       <set comment="band 4">
        <r>  0.0000  0.0923  0.0000 </r>
        <r>  0.0000  0.2993  0.0000 </r>
       </set>
       <set comment="band 5">
        <r>  0.0183  0.0550  0.0000 </r>
        <r>  0.0453  0.0173  0.0000 </r>
       </set>
       <set comment="band 6">
        <r>  0.1176  0.0160  0.0000 </r>
        <r>  0.0035  0.0697  0.0000 </r>
       </set>
       <set comment="band 7">
        <r>  0.0000  0.1262  0.0000 </r>
        <r>  0.0000  0.1741  0.0000 </r>
       </set>
       <set comment="band 8">
        <r>  0.0454  0.1276  0.0000 </r>
        <r>  0.0081  0.2345  0.0000 </r>
       </set>
      </set>
      <set comment="kpoint 26">
       <set comment="band 1">
        <r>  0.0675  0.0087  0.0000 </r>
        <r>  0.3954  0.0045  0.0000 </r>
       </set>
       <set comment="band 2">
        <r>  0.0909  0.0296  0.0000 </r>
        <r>  0.0942  0.2103  0.0000 </r>
       </set>
       <set comment="band 3">
        <r>  0.0143  0.0728  0.0000 </r>
        <r>  0.0006  0.2944  0.0000 </r>
       </set>
       <set comment="band 4">
        <r>  0.0047  0.0649  0.0000 </r>
        <r>  0.0042  0.3537  0.0000 </r>
       </set>
       <set comment="band 5">
        <r>  0.0619  0.1057  0.0000 </r>
        <r>  0.0059  0.0652  0.0000 </r>
       </set>
       <set comment="band 6">
        <r>  0.1042  0.0568  0.0000 </r>
        <r>  0.1190  0.1057  0.0000 </r>
       </set>
       <set comment="band 7">
        <r>  0.0001  0.0855  0.0000 </r>
        <r>  0.0035  0.0510  0.0000 </r>
       </set>
       <set comment="band 8">
        <r>  0.0029  0.1666  0.0000 </r>
        <r>  0.0066  0.0927  0.0000 </r>
       </set>
      </set>
      <set comment="kpoint 27">
       <set comment="band 1">
        <r>  0.0508  0.0144  0.0000 </r>
        <r>  0.4283  0.0049  0.0000 </r>
       </set>
       <set comment="band 2">
        <r>  0.1144  0.0300  0.0000 </r>
        <r>  0.0656  0.1843  0.0000 </r>
       </set>
       <set comment="band 3">
        <r>  0.0280  0.0684  0.0000 </r>
        <r>  0.0093  0.2680  0.0000 </r>
       </set>
       <set comment="band 4">
        <r>  0.0041  0.0739  0.0000 </r>
        <r>  0.0025  0.3341  0.0000 </r>
       </set>
       <set comment="band 5">
        <r>  0.0805  0.0552  0.0000 </r>
        <r>  0.0290  0.0919  0.0000 </r>
       </set>
       <set comment="band 6">
        <r>  0.0450  0.0904  0.0000 </r>
        <r>  0.0528  0.0621  0.0000 </r>
       </set>
       <set comment="band 7">
        <r>  0.0414  0.0649  0.0000 </r>
        <r>  0.0204  0.1012  0.0000 </r>
       </set>
       <set comment="band 8">
        <r>  0.0018  0.1261  0.0000 </r>
        <r>  0.0157  0.0808  0.0000 </r>
       </set>
      </set>
      <set comment="kpoint 28">
       <set comment="band 1">
        <r>  0.0315  0.0195  0.0000 </r>
        <r>  0.4718  0.0023  0.0000 </r>
       </set>
       <set comment="band 2">
        <r>  0.1361  0.0285  0.0000 </r>
        <r>  0.0202  0.1734  0.0000 </r>
       </set>
       <set comment="band 3">
        <r>  0.0381  0.0625  0.0000 </r>
        <r>  0.0183  0.2587  0.0000 </r>
       </set>
       <set comment="band 4">
        <r>  0.0017  0.0803  0.0000 </r>
        <r>  0.0005  0.3214  0.0000 </r>
       </set>
       <set comment="band 5">
        <r>  0.1023  0.0270  0.0000 </r>
        <r>  0.0364  0.1052  0.0000 </r>
       </set>
       <set comment="band 6">
        <r>  0.0173  0.0970  0.0000 </r>
        <r>  0.0422  0.0362  0.0000 </r>
       </set>
       <set comment="band 7">
        <r>  0.0256  0.0911  0.0000 </r>
        <r>  0.0068  0.1140  0.0000 </r>
       </set>
       <set comment="band 8">
        <r>  0.0264  0.0623  0.0000 </r>
        <r>  0.0148  0.1348  0.0000 </r>
       </set>
      </set>
      <set comment="kpoint 29">
       <set comment="band 1">
        <r>  0.0427  0.0174  0.0000 </r>
        <r>  0.4404  0.0054  0.0000 </r>
       </set>
       <set comment="band 2">
        <r>  0.1429  0.0166  0.0000 </r>
        <r>  0.0736  0.1834  0.0000 </r>
       </set>
       <set comment="band 3">
        <r>  0.0156  0.0781  0.0000 </r>
        <r>  0.0010  0.2725  0.0000 </r>
       </set>
       <set comment="band 4">
        <r>  0.0031  0.0829  0.0000 </r>
        <r>  0.0011  0.2991  0.0000 </r>
       </set>
       <set comment="band 5">
        <r>  0.0279  0.0804  0.0000 </r>
        <r>  0.0275  0.0522  0.0000 </r>
       </set>
       <set comment="band 6">
        <r>  0.0982  0.0104  0.0000 </r>
        <r>  0.0161  0.0860  0.0000 </r>
       </set>
       <set comment="band 7">
        <r>  0.0302  0.1108  0.0000 </r>
        <r>  0.0418  0.0927  0.0000 </r>
       </set>
       <set comment="band 8">
        <r>  0.0007  0.1490  0.0000 </r>
        <r>  0.0036  0.1282  0.0000 </r>
       </set>
      </set>
      <set comment="kpoint 30">
       <set comment="band 1">
        <r>  0.0216  0.0230  0.0000 </r>
        <r>  0.4847  0.0028  0.0000 </r>
       </set>
       <set comment="band 2">
        <r>  0.1736  0.0141  0.0000 </r>
        <r>  0.0307  0.1742  0.0000 </r>
       </set>
       <set comment="band 3">
        <r>  0.0219  0.0712  0.0000 </r>
        <r>  0.0053  0.2467  0.0000 </r>
       </set>
       <set comment="band 4">
        <r>  0.0020  0.0860  0.0000 </r>
        <r>  0.0001  0.2852  0.0000 </r>
       </set>
       <set comment="band 5">
        <r>  0.0369  0.0493  0.0000 </r>
        <r>  0.0258  0.0730  0.0000 </r>
       </set>
       <set comment="band 6">
        <r>  0.0809  0.0196  0.0000 </r>
        <r>  0.0031  0.1359  0.0000 </r>
       </set>
       <set comment="band 7">
        <r>  0.0308  0.1133  0.0000 </r>
        <r>  0.0460  0.0636  0.0000 </r>
       </set>
       <set comment="band 8">
        <r>  0.0158  0.0927  0.0000 </r>
        <r>  0.0096  0.1384  0.0000 </r>
       </set>
      </set>
      <set comment="kpoint 31">
       <set comment="band 1">
        <r>  0.0142  0.0245  0.0000 </r>
        <r>  0.5028  0.0012  0.0000 </r>
       </set>
       <set comment="band 2">
        <r>  0.1860  0.0144  0.0000 </r>
        <r>  0.0107  0.1714  0.0000 </r>
       </set>
       <set comment="band 3">
        <r>  0.0195  0.0687  0.0000 </r>
        <r>  0.0069  0.2354  0.0000 </r>
       </set>
       <set comment="band 4">
        <r>  0.0031  0.0847  0.0000 </r>
        <r>  0.0007  0.2893  0.0000 </r>
       </set>
       <set comment="band 5">
        <r>  0.0496  0.0387  0.0000 </r>
        <r>  0.0211  0.0846  0.0000 </r>
       </set>
       <set comment="band 6">
        <r>  0.0418  0.0620  0.0000 </r>
        <r>  0.0317  0.1099  0.0000 </r>
       </set>
       <set comment="band 7">
        <r>  0.0715  0.0514  0.0000 </r>
        <r>  0.0023  0.1774  0.0000 </r>
       </set>
       <set comment="band 8">
        <r>  0.0135  0.0534  0.0000 </r>
        <r>  0.0089  0.0854  0.0000 </r>
       </set>
      </set>
      <set comment="kpoint 32">
       <set comment="band 1">
        <r>  0.0310  0.0201  0.0000 </r>
        <r>  0.4682  0.0036  0.0000 </r>
       </set>
       <set comment="band 2">
        <r>  0.1589  0.0197  0.0000 </r>
        <r>  0.0447  0.1739  0.0000 </r>
       </set>
       <set comment="band 3">
        <r>  0.0215  0.0701  0.0000 </r>
        <r>  0.0019  0.2404  0.0000 </r>
       </set>
       <set comment="band 4">
        <r>  0.0041  0.0804  0.0000 </r>
        <r>  0.0016  0.3071  0.0000 </r>
       </set>
       <set comment="band 5">
        <r>  0.0611  0.0314  0.0000 </r>
        <r>  0.0122  0.1079  0.0000 </r>
       </set>
       <set comment="band 6">
        <r>  0.0037  0.1255  0.0000 </r>
        <r>  0.0610  0.0401  0.0000 </r>
       </set>
       <set comment="band 7">
        <r>  0.0910  0.0260  0.0000 </r>
        <r>  0.0069  0.1474  0.0000 </r>
       </set>
       <set comment="band 8">
        <r>  0.0001  0.0991  0.0000 </r>
        <r>  0.0109  0.1243  0.0000 </r>
       </set>
      </set>
      <set comment="kpoint 33">
       <set comment="band 1">
        <r>  0.0079  0.0274  0.0000 </r>
        <r>  0.5072  0.0015  0.0000 </r>
       </set>
       <set comment="band 2">
        <r>  0.1984  0.0030  0.0000 </r>
        <r>  0.0150  0.1751  0.0000 </r>
       </set>
       <set comment="band 3">
        <r>  0.0107  0.0800  0.0000 </r>
        <r>  0.0007  0.2685  0.0000 </r>
       </set>
       <set comment="band 4">
        <r>  0.0000  0.0914  0.0000 </r>
        <r>  0.0005  0.2670  0.0000 </r>
       </set>
       <set comment="band 5">
        <r>  0.0029  0.0605  0.0000 </r>
        <r>  0.0413  0.0534  0.0000 </r>
       </set>
       <set comment="band 6">
        <r>  0.1222  0.0166  0.0000 </r>
        <r>  0.0013  0.0776  0.0000 </r>
       </set>
       <set comment="band 7">
        <r>  0.0229  0.1011  0.0000 </r>
        <r>  0.0264  0.1196  0.0000 </r>
       </set>
       <set comment="band 8">
        <r>  0.0318  0.1019  0.0000 </r>
        <r>  0.0029  0.1924  0.0000 </r>
       </set>
      </set>
      <set comment="kpoint 34">
       <set comment="band 1">
        <r>  0.0018  0.0284  0.0000 </r>
        <r>  0.5229  0.0001  0.0000 </r>
       </set>
       <set comment="band 2">
        <r>  0.2187  0.0015  0.0000 </r>
        <r>  0.0011  0.1725  0.0000 </r>
       </set>
       <set comment="band 3">
        <r>  0.0020  0.0783  0.0000 </r>
        <r>  0.0000  0.2389  0.0000 </r>
       </set>
       <set comment="band 4">
        <r>  0.0034  0.0876  0.0000 </r>
        <r>  0.0009  0.2708  0.0000 </r>
       </set>
       <set comment="band 5">
        <r>  0.0310  0.0437  0.0000 </r>
        <r>  0.0288  0.0726  0.0000 </r>
       </set>
       <set comment="band 6">
        <r>  0.0821  0.0276  0.0000 </r>
        <r>  0.0019  0.1258  0.0000 </r>
       </set>
       <set comment="band 7">
        <r>  0.0066  0.1143  0.0000 </r>
        <r>  0.0400  0.0886  0.0000 </r>
       </set>
       <set comment="band 8">
        <r>  0.0537  0.0644  0.0000 </r>
        <r>  0.0061  0.1305  0.0000 </r>
       </set>
      </set>
      <set comment="kpoint 35">
       <set comment="band 1">
        <r>  0.0048  0.0273  0.0000 </r>
        <r>  0.5182  0.0006  0.0000 </r>
       </set>
       <set comment="band 2">
        <r>  0.2192  0.0035  0.0000 </r>
        <r>  0.0069  0.1710  0.0000 </r>
       </set>
       <set comment="band 3">
        <r>  0.0051  0.0720  0.0000 </r>
        <r>  0.0009  0.2446  0.0000 </r>
       </set>
       <set comment="band 4">
        <r>  0.0015  0.0890  0.0000 </r>
        <r>  0.0001  0.2485  0.0000 </r>
       </set>
       <set comment="band 5">
        <r>  0.0060  0.0153  0.0000 </r>
        <r>  0.0049  0.1589  0.0000 </r>
       </set>
       <set comment="band 6">
        <r>  0.1137  0.0280  0.0000 </r>
        <r>  0.0020  0.1409  0.0000 </r>
       </set>
       <set comment="band 7">
        <r>  0.0200  0.1230  0.0000 </r>
        <r>  0.0526  0.0277  0.0000 </r>
       </set>
       <set comment="band 8">
        <r>  0.0292  0.0845  0.0000 </r>
        <r>  0.0206  0.0914  0.0000 </r>
       </set>
      </set>
     </set>
    </set>
   </array>
  </projected>
 </calculation>
 <structure name="finalpos" >
  <crystal>
   <varray name="basis" >
    <v>       0.00000000       2.75279623       2.75279623 </v>
    <v>       2.75279623       0.00000000       2.75279623 </v>
    <v>       2.75279623       2.75279623       0.00000000 </v>
   </varray>
   <i name="volume">     41.72075819 </i>
   <varray name="rec_basis" >
    <v>      -0.18163349       0.18163349       0.18163349 </v>
    <v>       0.18163349      -0.18163349       0.18163349 </v>
    <v>       0.18163349       0.18163349      -0.18163349 </v>
   </varray>
  </crystal>
  <varray name="positions" >
   <v>       0.00000000       0.00000000       0.00000000 </v>
   <v>       0.25000000       0.25000000       0.25000000 </v>
  </varray>
 </structure>
</modeling>
