AlP                                     
           1
     0.000000    2.752796    2.752796
     2.752796    0.000000    2.752796
     2.752796    2.752796    0.000000
   Al   P 
   1   1
Direct configuration=     1
   0.00000000  0.00000000  0.00000000
   0.25000000  0.25000000  0.25000000
